Title                                                                   
Freq      RCAM-B3LYP                                                  6-31G(d)            
Number of atoms                            I                6
Info1-9                                    I   N=           9
          14          14        1002           0           0         100
           6          18           2
Charge                                     I                0
Multiplicity                               I                1
Number of electrons                        I               24
Number of alpha electrons                  I               12
Number of beta electrons                   I               12
Number of basis functions                  I               51
Number of independent functions            I               51
Number of point charges in /Mol/           I                0
Number of translation vectors              I                0
Atomic numbers                             I   N=           6
           6           7           8           1           1           1
Nuclear charges                            R   N=           6
  6.00000000E+00  7.00000000E+00  8.00000000E+00  1.00000000E+00  1.00000000E+00
  1.00000000E+00
Current cartesian coordinates              R   N=          18
 -3.05102006E-01  7.31368962E-01 -1.89208829E-04  2.04418003E+00 -2.97542040E-01
 -1.43855402E-04 -2.25718232E+00 -4.63675534E-01  1.28265161E-04  2.21969398E+00
 -2.19730625E+00  3.60701476E-04  3.61341331E+00  7.79996955E-01  6.06365873E-04
 -2.54296928E-01  2.82129408E+00  1.49052149E-04
Force Field                                I                0
Int Atom Types                             I   N=           6
           0           0           0           0           0           0
MM charges                                 R   N=           6
  0.00000000E+00  0.00000000E+00  0.00000000E+00  0.00000000E+00  0.00000000E+00
  0.00000000E+00
Integer atomic weights                     I   N=           6
          12          14          16           1           1           1
Real atomic weights                        R   N=           6
  1.20000000E+01  1.40030740E+01  1.59949146E+01  1.00782504E+00  1.00782504E+00
  1.00782504E+00
Atom fragment info                         I   N=           6
           0           0           0           0           0           0
Atom residue num                           I   N=           6
           0           0           0           0           0           0
Nuclear spins                              I   N=           6
           0           2           0           1           1           1
Nuclear ZEff                               R   N=           6
 -3.60000000E+00 -4.55000000E+00 -5.60000000E+00 -1.00000000E+00 -1.00000000E+00
 -1.00000000E+00
Nuclear QMom                               R   N=           6
  0.00000000E+00  2.04400000E+00  0.00000000E+00  0.00000000E+00  0.00000000E+00
  0.00000000E+00
Nuclear GFac                               R   N=           6
  0.00000000E+00  4.03761000E-01  0.00000000E+00  2.79284600E+00  2.79284600E+00
  2.79284600E+00
MicOpt                                     I   N=           6
          -1          -1          -1          -1          -1          -1
Number of contracted shells                I               18
Number of primitive shells                 I               45
Pure/Cartesian d shells                    I                1
Pure/Cartesian f shells                    I                0
Highest angular momentum                   I                2
Largest degree of contraction              I                6
Shell types                                I   N=          18
           0          -1          -1           2           0          -1
          -1           2           0          -1          -1           2
           0           0           0           0           0           0
Number of primitives per shell             I   N=          18
           6           3           1           1           6           3
           1           1           6           3           1           1
           3           1           3           1           3           1
Shell to atom map                          I   N=          18
           1           1           1           1           2           2
           2           2           3           3           3           3
           4           4           5           5           6           6
Primitive exponents                        R   N=          45
  3.04752488E+03  4.57369518E+02  1.03948685E+02  2.92101553E+01  9.28666296E+00
  3.16392696E+00  7.86827235E+00  1.88128854E+00  5.44249258E-01  1.68714478E-01
  8.00000000E-01  4.17351146E+03  6.27457911E+02  1.42902093E+02  4.02343293E+01
  1.28202129E+01  4.39043701E+00  1.16263619E+01  2.71627981E+00  7.72218397E-01
  2.12031498E-01  8.00000000E-01  5.48467166E+03  8.25234946E+02  1.88046958E+02
  5.29645000E+01  1.68975704E+01  5.79963534E+00  1.55396162E+01  3.59993359E+00
  1.01376175E+00  2.70005823E-01  8.00000000E-01  1.87311370E+01  2.82539436E+00
  6.40121692E-01  1.61277759E-01  1.87311370E+01  2.82539436E+00  6.40121692E-01
  1.61277759E-01  1.87311370E+01  2.82539436E+00  6.40121692E-01  1.61277759E-01
Contraction coefficients                   R   N=          45
  1.83473713E-03  1.40373228E-02  6.88426223E-02  2.32184443E-01  4.67941348E-01
  3.62311985E-01 -1.19332420E-01 -1.60854152E-01  1.14345644E+00  1.00000000E+00
  1.00000000E+00  1.83477216E-03  1.39946270E-02  6.85865518E-02  2.32240873E-01
  4.69069948E-01  3.60455199E-01 -1.14961182E-01 -1.69117479E-01  1.14585195E+00
  1.00000000E+00  1.00000000E+00  1.83107443E-03  1.39501722E-02  6.84450781E-02
  2.32714336E-01  4.70192898E-01  3.58520853E-01 -1.10777550E-01 -1.48026263E-01
  1.13076702E+00  1.00000000E+00  1.00000000E+00  3.34946043E-02  2.34726953E-01
  8.13757326E-01  1.00000000E+00  3.34946043E-02  2.34726953E-01  8.13757326E-01
  1.00000000E+00  3.34946043E-02  2.34726953E-01  8.13757326E-01  1.00000000E+00
P(S=P) Contraction coefficients            R   N=          45
  0.00000000E+00  0.00000000E+00  0.00000000E+00  0.00000000E+00  0.00000000E+00
  0.00000000E+00  6.89990666E-02  3.16423961E-01  7.44308291E-01  1.00000000E+00
  0.00000000E+00  0.00000000E+00  0.00000000E+00  0.00000000E+00  0.00000000E+00
  0.00000000E+00  0.00000000E+00  6.75797439E-02  3.23907296E-01  7.40895140E-01
  1.00000000E+00  0.00000000E+00  0.00000000E+00  0.00000000E+00  0.00000000E+00
  0.00000000E+00  0.00000000E+00  0.00000000E+00  7.08742682E-02  3.39752839E-01
  7.27158577E-01  1.00000000E+00  0.00000000E+00  0.00000000E+00  0.00000000E+00
  0.00000000E+00  0.00000000E+00  0.00000000E+00  0.00000000E+00  0.00000000E+00
  0.00000000E+00  0.00000000E+00  0.00000000E+00  0.00000000E+00  0.00000000E+00
Coordinates of each shell                  R   N=          54
 -3.05102006E-01  7.31368962E-01 -1.89208829E-04 -3.05102006E-01  7.31368962E-01
 -1.89208829E-04 -3.05102006E-01  7.31368962E-01 -1.89208829E-04 -3.05102006E-01
  7.31368962E-01 -1.89208829E-04  2.04418003E+00 -2.97542040E-01 -1.43855402E-04
  2.04418003E+00 -2.97542040E-01 -1.43855402E-04  2.04418003E+00 -2.97542040E-01
 -1.43855402E-04  2.04418003E+00 -2.97542040E-01 -1.43855402E-04 -2.25718232E+00
 -4.63675534E-01  1.28265161E-04 -2.25718232E+00 -4.63675534E-01  1.28265161E-04
 -2.25718232E+00 -4.63675534E-01  1.28265161E-04 -2.25718232E+00 -4.63675534E-01
  1.28265161E-04  2.21969398E+00 -2.19730625E+00  3.60701476E-04  2.21969398E+00
 -2.19730625E+00  3.60701476E-04  3.61341331E+00  7.79996955E-01  6.06365873E-04
  3.61341331E+00  7.79996955E-01  6.06365873E-04 -2.54296928E-01  2.82129408E+00
  1.49052149E-04 -2.54296928E-01  2.82129408E+00  1.49052149E-04
Density Number of contracted shells        I               60
Density Number of primitive shells         I               60
Density Pure/Cartesian d shells            I                0
Density Pure/Cartesian f shells            I                0
Density Highest angular momentum           I                3
Density Largest degree of contraction      I                1
Density Shell types                        I   N=          60
           0           0           0           0          -1          -2
          -1          -2          -1          -2          -1          -2
          -3          -1          -2          -3           0           0
           0           0          -1          -2          -1          -2
          -1          -2          -1          -2          -3          -1
          -2          -3           0           0           0           0
          -1          -2          -1          -2          -1          -2
          -1          -2          -3          -1          -2          -3
           0           0           0           0           0           0
           0           0           0           0           0           0
Density Number of primitives per shell     I   N=          60
           1           1           1           1           1           1
           1           1           1           1           1           1
           1           1           1           1           1           1
           1           1           1           1           1           1
           1           1           1           1           1           1
           1           1           1           1           1           1
           1           1           1           1           1           1
           1           1           1           1           1           1
           1           1           1           1           1           1
           1           1           1           1           1           1
Density Shell to atom map                  I   N=          60
           1           1           1           1           1           1
           1           1           1           1           1           1
           1           1           1           1           2           2
           2           2           2           2           2           2
           2           2           2           2           2           2
           2           2           3           3           3           3
           3           3           3           3           3           3
           3           3           3           3           3           3
           4           4           4           4           5           5
           5           5           6           6           6           6
Density Primitive exponents                R   N=          60
  6.09504976E+03  9.14739036E+02  2.07897370E+02  5.84203106E+01  1.70961976E+01
  1.70961976E+01  6.32785392E+00  6.32785392E+00  3.76257708E+00  3.76257708E+00
  1.31969604E+00  1.31969604E+00  1.31969604E+00  3.37428956E-01  3.37428956E-01
  3.37428956E-01  8.34702292E+03  1.25491582E+03  2.85804186E+02  8.04686586E+01
  2.44174064E+01  2.44174064E+01  8.78087402E+00  8.78087402E+00  5.43255961E+00
  5.43255961E+00  1.57197292E+00  1.57197292E+00  1.57197292E+00  4.24062995E-01
  4.24062995E-01  4.24062995E-01  1.09693433E+04  1.65046989E+03  3.76093916E+02
  1.05929000E+02  3.24087494E+01  3.24087494E+01  1.15992707E+01  1.15992707E+01
  7.19986717E+00  7.19986717E+00  1.80112121E+00  1.80112121E+00  1.80112121E+00
  5.40011645E-01  5.40011645E-01  5.40011645E-01  3.74622739E+01  5.65078873E+00
  1.28024338E+00  3.22555518E-01  3.74622739E+01  5.65078873E+00  1.28024338E+00
  3.22555518E-01  3.74622739E+01  5.65078873E+00  1.28024338E+00  3.22555518E-01
Density Contraction coefficients           R   N=          60
  1.00000000E+00  1.00000000E+00  1.00000000E+00  1.00000000E+00  1.00000000E+00
  1.00000000E+00  1.00000000E+00  1.00000000E+00  1.00000000E+00  1.00000000E+00
  1.00000000E+00  1.00000000E+00  1.00000000E+00  1.00000000E+00  1.00000000E+00
  1.00000000E+00  1.00000000E+00  1.00000000E+00  1.00000000E+00  1.00000000E+00
  1.00000000E+00  1.00000000E+00  1.00000000E+00  1.00000000E+00  1.00000000E+00
  1.00000000E+00  1.00000000E+00  1.00000000E+00  1.00000000E+00  1.00000000E+00
  1.00000000E+00  1.00000000E+00  1.00000000E+00  1.00000000E+00  1.00000000E+00
  1.00000000E+00  1.00000000E+00  1.00000000E+00  1.00000000E+00  1.00000000E+00
  1.00000000E+00  1.00000000E+00  1.00000000E+00  1.00000000E+00  1.00000000E+00
  1.00000000E+00  1.00000000E+00  1.00000000E+00  1.00000000E+00  1.00000000E+00
  1.00000000E+00  1.00000000E+00  1.00000000E+00  1.00000000E+00  1.00000000E+00
  1.00000000E+00  1.00000000E+00  1.00000000E+00  1.00000000E+00  1.00000000E+00
Density P(S=P) Contraction coefficients    R   N=          60
  0.00000000E+00  0.00000000E+00  0.00000000E+00  0.00000000E+00  1.00000000E+00
  0.00000000E+00  1.00000000E+00  0.00000000E+00  1.00000000E+00  0.00000000E+00
  1.00000000E+00  0.00000000E+00  0.00000000E+00  1.00000000E+00  0.00000000E+00
  0.00000000E+00  0.00000000E+00  0.00000000E+00  0.00000000E+00  0.00000000E+00
  1.00000000E+00  0.00000000E+00  1.00000000E+00  0.00000000E+00  1.00000000E+00
  0.00000000E+00  1.00000000E+00  0.00000000E+00  0.00000000E+00  1.00000000E+00
  0.00000000E+00  0.00000000E+00  0.00000000E+00  0.00000000E+00  0.00000000E+00
  0.00000000E+00  1.00000000E+00  0.00000000E+00  1.00000000E+00  0.00000000E+00
  1.00000000E+00  0.00000000E+00  1.00000000E+00  0.00000000E+00  0.00000000E+00
  1.00000000E+00  0.00000000E+00  0.00000000E+00  0.00000000E+00  0.00000000E+00
  0.00000000E+00  0.00000000E+00  0.00000000E+00  0.00000000E+00  0.00000000E+00
  0.00000000E+00  0.00000000E+00  0.00000000E+00  0.00000000E+00  0.00000000E+00
Density Coordinates of each shell          R   N=         180
 -3.05102006E-01  7.31368962E-01 -1.89208829E-04 -3.05102006E-01  7.31368962E-01
 -1.89208829E-04 -3.05102006E-01  7.31368962E-01 -1.89208829E-04 -3.05102006E-01
  7.31368962E-01 -1.89208829E-04 -3.05102006E-01  7.31368962E-01 -1.89208829E-04
 -3.05102006E-01  7.31368962E-01 -1.89208829E-04 -3.05102006E-01  7.31368962E-01
 -1.89208829E-04 -3.05102006E-01  7.31368962E-01 -1.89208829E-04 -3.05102006E-01
  7.31368962E-01 -1.89208829E-04 -3.05102006E-01  7.31368962E-01 -1.89208829E-04
 -3.05102006E-01  7.31368962E-01 -1.89208829E-04 -3.05102006E-01  7.31368962E-01
 -1.89208829E-04 -3.05102006E-01  7.31368962E-01 -1.89208829E-04 -3.05102006E-01
  7.31368962E-01 -1.89208829E-04 -3.05102006E-01  7.31368962E-01 -1.89208829E-04
 -3.05102006E-01  7.31368962E-01 -1.89208829E-04  2.04418003E+00 -2.97542040E-01
 -1.43855402E-04  2.04418003E+00 -2.97542040E-01 -1.43855402E-04  2.04418003E+00
 -2.97542040E-01 -1.43855402E-04  2.04418003E+00 -2.97542040E-01 -1.43855402E-04
  2.04418003E+00 -2.97542040E-01 -1.43855402E-04  2.04418003E+00 -2.97542040E-01
 -1.43855402E-04  2.04418003E+00 -2.97542040E-01 -1.43855402E-04  2.04418003E+00
 -2.97542040E-01 -1.43855402E-04  2.04418003E+00 -2.97542040E-01 -1.43855402E-04
  2.04418003E+00 -2.97542040E-01 -1.43855402E-04  2.04418003E+00 -2.97542040E-01
 -1.43855402E-04  2.04418003E+00 -2.97542040E-01 -1.43855402E-04  2.04418003E+00
 -2.97542040E-01 -1.43855402E-04  2.04418003E+00 -2.97542040E-01 -1.43855402E-04
  2.04418003E+00 -2.97542040E-01 -1.43855402E-04  2.04418003E+00 -2.97542040E-01
 -1.43855402E-04 -2.25718232E+00 -4.63675534E-01  1.28265161E-04 -2.25718232E+00
 -4.63675534E-01  1.28265161E-04 -2.25718232E+00 -4.63675534E-01  1.28265161E-04
 -2.25718232E+00 -4.63675534E-01  1.28265161E-04 -2.25718232E+00 -4.63675534E-01
  1.28265161E-04 -2.25718232E+00 -4.63675534E-01  1.28265161E-04 -2.25718232E+00
 -4.63675534E-01  1.28265161E-04 -2.25718232E+00 -4.63675534E-01  1.28265161E-04
 -2.25718232E+00 -4.63675534E-01  1.28265161E-04 -2.25718232E+00 -4.63675534E-01
  1.28265161E-04 -2.25718232E+00 -4.63675534E-01  1.28265161E-04 -2.25718232E+00
 -4.63675534E-01  1.28265161E-04 -2.25718232E+00 -4.63675534E-01  1.28265161E-04
 -2.25718232E+00 -4.63675534E-01  1.28265161E-04 -2.25718232E+00 -4.63675534E-01
  1.28265161E-04 -2.25718232E+00 -4.63675534E-01  1.28265161E-04  2.21969398E+00
 -2.19730625E+00  3.60701476E-04  2.21969398E+00 -2.19730625E+00  3.60701476E-04
  2.21969398E+00 -2.19730625E+00  3.60701476E-04  2.21969398E+00 -2.19730625E+00
  3.60701476E-04  3.61341331E+00  7.79996955E-01  6.06365873E-04  3.61341331E+00
  7.79996955E-01  6.06365873E-04  3.61341331E+00  7.79996955E-01  6.06365873E-04
  3.61341331E+00  7.79996955E-01  6.06365873E-04 -2.54296928E-01  2.82129408E+00
  1.49052149E-04 -2.54296928E-01  2.82129408E+00  1.49052149E-04 -2.54296928E-01
  2.82129408E+00  1.49052149E-04 -2.54296928E-01  2.82129408E+00  1.49052149E-04
Constraint Structure                       R   N=          18
 -3.05102006E-01  7.31368962E-01 -1.89208829E-04  2.04418003E+00 -2.97542040E-01
 -1.43855402E-04 -2.25718232E+00 -4.63675534E-01  1.28265161E-04  2.21969398E+00
 -2.19730625E+00  3.60701476E-04  3.61341331E+00  7.79996955E-01  6.06365873E-04
 -2.54296928E-01  2.82129408E+00  1.49052149E-04
Num ILSW                                   I              100
ILSW                                       I   N=         100
           0           1           0           0           2           0
           0           0           0           0       20419          -1
           0           0           0           0           0           0
           0           0           1           0           1           0
           1           0           0           0           0           0
           0           0      100000           0          -1           0
           0           0           0           0           0           0
           0           0           0           1           0           0
           0           0           1           0           0           0
           0           0           4          40           0           0
           0           0          40           0           0           0
           0           0           0           0           0           0
           0           0           0           0           0           0
           0           0           0           0           0           0
           0           0           0           0           0           0
           0           0           0           0           0           0
           0           0           0           0
Num RLSW                                   I               40
RLSW                                       R   N=          40
  1.00000000E+00  1.00000000E+00  1.00000000E+00  8.10000000E-01  1.00000000E+00
  0.00000000E+00  3.30000000E-01  1.90000000E-01  0.00000000E+00  4.60000000E-01
  0.00000000E+00  3.30000000E-01  1.90000000E-01  0.00000000E+00  4.60000000E-01
  0.00000000E+00  0.00000000E+00  1.00000000E+00  0.00000000E+00  0.00000000E+00
  0.00000000E+00  0.00000000E+00  1.00000000E+00  0.00000000E+00  0.00000000E+00
  0.00000000E+00  0.00000000E+00  1.00000000E+00  0.00000000E+00  0.00000000E+00
  0.00000000E+00  0.00000000E+00  0.00000000E+00  0.00000000E+00  0.00000000E+00
  0.00000000E+00  0.00000000E+00  0.00000000E+00  1.00000000E+00  1.00000000E+00
MxBond                                     I                3
NBond                                      I   N=           6
           3           3           1           1           1           1
IBond                                      I   N=          18
           2           3           6           1           4           5
           1           0           0           2           0           0
           2           0           0           1           0           0
RBond                                      R   N=          18
  1.41000000E+00  2.00000000E+00  1.00000000E+00  1.41000000E+00  1.00000000E+00
  1.00000000E+00  2.00000000E+00  0.00000000E+00  0.00000000E+00  1.00000000E+00
  0.00000000E+00  0.00000000E+00  1.00000000E+00  0.00000000E+00  0.00000000E+00
  1.00000000E+00  0.00000000E+00  0.00000000E+00
Virial Ratio                               R      2.008713764675941E+00
SCF Energy                                 R     -1.698151191721703E+02
Total Energy                               R     -1.698151191721703E+02
RMS Force                                  R      1.019727659154081E-04
RMS Density                                R      1.639379068680435E-09
External E-field                           R   N=          35
  0.00000000E+00  0.00000000E+00  0.00000000E+00  0.00000000E+00  0.00000000E+00
  0.00000000E+00  0.00000000E+00  0.00000000E+00  0.00000000E+00  0.00000000E+00
  0.00000000E+00  0.00000000E+00  0.00000000E+00  0.00000000E+00  0.00000000E+00
  0.00000000E+00  0.00000000E+00  0.00000000E+00  0.00000000E+00  0.00000000E+00
  0.00000000E+00  0.00000000E+00  0.00000000E+00  0.00000000E+00  0.00000000E+00
  0.00000000E+00  0.00000000E+00  0.00000000E+00  0.00000000E+00  0.00000000E+00
  0.00000000E+00  0.00000000E+00  0.00000000E+00  0.00000000E+00  0.00000000E+00
IOpCl                                      I                0
IROHF                                      I                0
Alpha Orbital Energies                     R   N=          51
 -1.91874328E+01 -1.44357134E+01 -1.03637828E+01 -1.11384276E+00 -9.88927346E-01
 -7.00074365E-01 -6.28169348E-01 -5.47958912E-01 -4.77323224E-01 -4.72043908E-01
 -3.33294461E-01 -3.18305965E-01  8.89285661E-02  1.24218833E-01  1.61056717E-01
  2.18111765E-01  3.22342709E-01  4.06196920E-01  5.92290105E-01  6.11722101E-01
  7.12885124E-01  7.45982362E-01  7.67440395E-01  7.76806948E-01  9.04341676E-01
  9.28173040E-01  9.39097521E-01  9.53623476E-01  1.07506826E+00  1.14279049E+00
  1.27876382E+00  1.36396722E+00  1.44724111E+00  1.54564476E+00  1.57919445E+00
  1.76002781E+00  1.85093474E+00  1.92698269E+00  1.94709350E+00  2.11309588E+00
  2.18182977E+00  2.35419530E+00  2.37184468E+00  2.56702797E+00  2.71167597E+00
  2.74335255E+00  2.99134430E+00  3.08909880E+00  3.80967104E+00  3.93765659E+00
  4.25130977E+00
Alpha MO coefficients                      R   N=        2601
  1.45304767E-05  5.55436339E-04  5.97814886E-05 -2.21354196E-05 -2.57103392E-08
 -2.77511252E-03  2.05542538E-03  1.85916528E-03 -2.48843876E-07 -6.72590975E-04
 -2.72316288E-04 -6.91543868E-06 -4.59107590E-04  1.19240891E-07  9.44513467E-08
 -7.78402398E-06 -2.96039443E-07 -7.46397915E-07  8.72699970E-05 -1.68578503E-08
  1.78914262E-04 -2.63429661E-04 -6.73906548E-04  5.69394529E-08 -1.07265536E-04
  3.94899405E-05 -1.77638064E-05 -1.04638887E-04 -6.92378951E-09 -4.57093204E-08
  9.92815165E-01  2.57791875E-02  1.08912292E-03  6.29420012E-04 -2.05387912E-07
  1.29603429E-02  1.21143507E-03  6.42959303E-04 -2.21227591E-07 -7.54017014E-03
 -7.80370371E-03 -7.94702996E-03  2.63433809E-04 -8.06788567E-08 -4.33703849E-08
 -1.29509046E-04 -2.39085971E-04  1.65566037E-04 -1.04119490E-05 -2.63992052E-05
 -5.66329938E-04  3.76933265E-05  2.43838824E-04  3.13200001E-04 -1.74426398E-04
 -1.44104598E-09 -4.62632626E-04 -1.89248401E-04 -1.13045085E-05  9.66812401E-08
  1.18793843E-04  4.90216171E-05 -1.17334188E-05 -4.31570121E-05 -1.86369887E-08
 -1.18678870E-08  9.92613171E-01  3.48537671E-02  1.17058379E-04 -7.63133409E-06
  5.62633861E-07  4.32351783E-03  1.15185584E-05 -1.78009983E-05 -1.42460003E-07
 -8.40477526E-03 -8.33646156E-03 -8.38337743E-03  3.41047619E-05  1.66322975E-08
 -2.62133824E-09  6.73355239E-06  3.46179634E-05 -2.58467975E-05 -8.21165542E-07
  7.43475275E-10 -1.04445472E-04 -9.70714755E-05  1.83020063E-05 -2.86266256E-08
 -7.67613814E-05  2.97522098E-05  1.38169478E-05  4.79791863E-06 -1.02511161E-09
 -1.22281676E-08  3.19670666E-04 -5.30767122E-04  3.15676438E-04 -5.12804777E-04
 -2.52992925E-05  4.95548478E-05  9.92753945E-01  4.84512958E-02 -4.36184302E-05
 -6.00215340E-04  3.48518008E-08 -6.69941775E-03 -1.96534500E-03 -2.44678298E-03
 -2.20332717E-07 -8.51975513E-03 -9.22973842E-03 -9.88540648E-03  3.12011726E-04
 -1.09199589E-07 -5.66332675E-08 -1.95580958E-04 -7.22834641E-05  2.77813993E-04
 -2.20567236E-04  8.22437260E-09  1.42745205E-03  4.98243469E-04  9.53212904E-04
  9.56802240E-08 -6.13802731E-04 -2.33122013E-04 -1.87536929E-05  2.99566022E-04
 -2.61756022E-08  7.81488304E-08 -1.58170780E-04  4.07868372E-04  4.66459489E-05
  8.02494844E-06 -2.51721058E-08 -2.94162969E-03 -1.72900708E-03 -8.42074196E-04
  5.07929926E-07 -1.27358674E-04  1.34302652E-04  3.67542529E-04 -2.31010397E-04
  1.63615046E-07  8.21410230E-08  1.54935521E-04  3.51604659E-04 -2.10924276E-04
 -1.89775603E-04 -2.40401842E-04  2.90185142E-03 -1.32335544E-01  2.59143732E-01
 -1.10009433E-01 -1.05323168E-01  2.62225818E-05  8.18300913E-02  7.74317045E-03
  3.01855571E-02 -1.95372088E-07  1.12622978E-02 -6.39540672E-03 -2.25660993E-02
  1.78924919E-02 -4.75551955E-06 -2.47526798E-06 -6.27217050E-02  1.28526935E-01
 -4.53111014E-02  8.00425077E-03  1.34596268E-05  1.20641124E-01 -2.43347507E-02
 -4.11091245E-03  6.52747337E-06  9.27698028E-03  1.73817038E-03 -6.42625610E-03
 -1.84880854E-03  1.35622316E-06 -3.56060279E-07 -1.78197689E-01  3.84273158E-01
  1.35484022E-01  7.64173424E-02 -2.05916773E-05  3.57216619E-01  4.70181208E-02
  2.01677502E-02 -7.26255269E-06  5.56096566E-03 -5.70793085E-03 -7.36832368E-03
  9.97642418E-03 -2.84545479E-06 -1.43731836E-06  3.02336612E-02  4.35586412E-04
  2.68793974E-02  1.72286520E-03  3.28104311E-02 -1.53340393E-02 -3.26025171E-02
  6.63055059E-02  2.14163999E-01  5.14753406E-03 -5.19137595E-06  1.37804270E-02
  9.70526202E-03  1.05868763E-02 -2.63841541E-06  5.69231594E-03 -1.65802507E-03
 -3.05927879E-03 -2.17311204E-02  4.85781948E-06  1.63121897E-06 -1.88352922E-01
  3.91994317E-01 -1.15132342E-02  1.90452771E-02  5.14411994E-05  4.00132215E-01
  2.01359114E-03  7.09299676E-03  2.71000775E-05  4.77231892E-03  1.13551622E-02
 -1.77113087E-02  2.98584353E-03  9.07704836E-06 -3.97789830E-07  8.57029691E-02
 -1.90408259E-01 -3.51522798E-02 -3.91067218E-02  9.81266864E-06 -1.68866174E-01
 -9.14011595E-04 -9.57883031E-03  1.85968442E-06  1.85386469E-03 -2.61080748E-04
  1.48848909E-03 -2.70102990E-03  8.42388150E-07  1.06933036E-06  1.10524068E-01
  5.04926879E-03  1.19806895E-01  7.41618928E-03  1.90341778E-02  3.34039457E-03
 -1.32230813E-01  2.84910811E-01  1.60400859E-01  1.41183613E-01 -4.63968969E-06
  2.04231913E-01  4.65390860E-02  6.89900558E-02  2.68988529E-06 -8.42593425E-03
  2.65670435E-03 -1.33006344E-02 -6.65111568E-03 -3.78814089E-07  6.08076982E-06
  4.55120334E-02 -9.93522118E-02 -2.50334406E-01  2.29768674E-01 -7.57640631E-05
 -1.35334990E-01 -1.17445852E-01  1.00983149E-01 -3.88907896E-05  3.26038499E-03
 -1.15413069E-02  4.02395718E-03 -1.10360177E-02 -9.17635522E-06  7.42620748E-06
  6.17196290E-02 -1.41889554E-01  3.65766007E-02  4.69443669E-02 -2.14826741E-06
 -1.52420243E-01  3.21637274E-02  2.88214727E-02 -6.98824980E-06  4.42855423E-03
  3.43420734E-03 -6.99538104E-04  6.23360516E-03 -6.32149281E-07 -7.52248652E-07
 -1.64178654E-01 -6.04332659E-02 -7.97891618E-02 -2.79911950E-02  1.62757078E-01
  6.60986752E-02  1.83453202E-02 -4.78747586E-02 -1.10285326E-01  2.18241448E-01
  3.66035878E-05 -1.24360779E-02 -1.16839625E-02  5.13432431E-02  8.53539730E-06
  7.38547226E-03 -1.91957932E-03  3.09701068E-03  1.56736935E-02  1.68964263E-06
  1.52620946E-06 -1.86244847E-03  2.52820986E-03  3.59468669E-01  2.68775660E-01
  8.58672663E-05  1.00955590E-03  1.73243798E-01  1.40780066E-01  4.39658495E-05
  8.72217712E-03 -2.08285348E-03 -1.11402309E-03  1.31842009E-02  1.42716225E-05
  1.54870024E-05 -3.02875958E-02  6.34943126E-02 -1.00472409E-01  7.14499749E-02
  2.26274930E-05  1.10143578E-01 -4.77116990E-02  3.89270339E-02  1.09598170E-05
 -1.25099284E-02  3.30811772E-03 -8.23259580E-04  1.45099766E-03  3.21903387E-06
  5.86889047E-07 -1.20999621E-01 -4.97693190E-02  2.48970361E-01  1.23197516E-01
  8.28338955E-02  6.12422074E-02  4.66402612E-02 -1.00918735E-01  2.29102626E-01
 -2.56442640E-01 -5.82730702E-05 -1.45462829E-01  3.68986671E-02 -9.15644668E-02
 -1.82746899E-05  1.78388105E-02 -1.62511813E-02  2.09735873E-03  4.39910597E-04
 -1.53889357E-07 -2.76541893E-06 -1.27150331E-02  2.91702754E-02 -1.17660145E-01
  3.27465922E-01 -6.33799979E-05  4.81377999E-02 -6.64444627E-02  1.81575415E-01
 -3.92241316E-05  8.05658169E-03 -1.71006555E-02 -3.28580409E-04  8.42039625E-03
  9.25282188E-07  1.27054213E-05 -5.31487806E-02  1.10520209E-01 -4.93775169E-02
 -2.26939328E-01 -1.07673306E-05  2.13589367E-01 -1.51197522E-02 -1.16246882E-01
 -7.66735874E-06 -2.41697750E-04 -1.78852652E-02 -2.16840664E-03 -1.31226872E-02
 -1.84371249E-06  1.46655348E-06 -1.91759907E-01 -1.03927456E-01  6.74044500E-02
  3.66852511E-02 -1.85138638E-01 -1.27017847E-01 -3.72580336E-02  1.02677885E-01
 -2.31409774E-01 -2.59263810E-01 -8.00190890E-06  3.52540583E-02 -2.23632056E-02
 -4.56009587E-02 -1.27010163E-05 -2.51193937E-04 -1.56780741E-02 -6.11810967E-03
  1.32833966E-02  9.65518628E-07 -2.64567456E-06  4.65169889E-03 -1.13995433E-02
  9.89829038E-02  1.03575781E-01  2.70519327E-05 -1.05761441E-02  4.58690676E-02
  3.66333078E-02  1.75913800E-05  1.28185290E-02 -9.91339285E-03 -3.15639470E-04
  9.41178755E-03  5.22573324E-06  5.66911105E-06  8.21055816E-02 -1.65341435E-01
  4.53255233E-01  1.96064645E-01 -1.10264176E-04 -3.63676185E-01  2.45976960E-01
  1.01051335E-01 -6.32294381E-05  3.29862067E-02  5.87602143E-03  4.45933726E-04
  1.51449298E-02 -8.62255090E-06 -4.02067277E-06 -7.50481480E-02 -6.92784992E-02
  9.74069035E-02  7.47096697E-02 -1.15282459E-01 -1.27642851E-01  6.24019579E-06
 -1.32150348E-05  5.76235643E-05 -5.59686774E-05  3.71282386E-01 -3.27942980E-05
  2.23799730E-05 -1.99828087E-05  1.90473172E-01 -5.48411529E-06  1.34218897E-07
  4.78990791E-06 -1.82691943E-06 -2.64471647E-03 -1.52723083E-02  2.16761509E-05
 -4.86328172E-05 -9.23946850E-05  3.02366790E-05  3.14133407E-01 -8.12678827E-05
 -6.44621876E-05  1.80008084E-05  2.16471545E-01 -2.58958236E-06 -5.06429178E-06
  9.99976426E-06  1.72298822E-07 -9.73104477E-03  4.29280148E-03  3.08757092E-06