 Entering Gaussian System, Link 0=g09
 Input=freq.com
 Output=freq.log
 Initial command:
 /home/diegoa/progs/g09/l1.exe /home/diegoa/g09scratch/Gau-19642.inp -scrdir=/home/diegoa/g09scratch/
 Default is to use a total of   4 processors:
                                4 via shared-memory
                                1 via Linda
 Entering Link 1 = /home/diegoa/progs/g09/l1.exe PID=     19645.
  
 Copyright (c) 1988,1990,1992,1993,1995,1998,2003,2009, Gaussian, Inc.
                  All Rights Reserved.
  
 This is part of the Gaussian(R) 09 program.  It is based on
 the Gaussian(R) 03 system (copyright 2003, Gaussian, Inc.),
 the Gaussian(R) 98 system (copyright 1998, Gaussian, Inc.),
 the Gaussian(R) 94 system (copyright 1995, Gaussian, Inc.),
 the Gaussian 92(TM) system (copyright 1992, Gaussian, Inc.),
 the Gaussian 90(TM) system (copyright 1990, Gaussian, Inc.),
 the Gaussian 88(TM) system (copyright 1988, Gaussian, Inc.),
 the Gaussian 86(TM) system (copyright 1986, Carnegie Mellon
 University), and the Gaussian 82(TM) system (copyright 1983,
 Carnegie Mellon University). Gaussian is a federally registered
 trademark of Gaussian, Inc.
  
 This software contains proprietary and confidential information,
 including trade secrets, belonging to Gaussian, Inc.
  
 This software is provided under written license and may be
 used, copied, transmitted, or stored only in accord with that
 written license.
  
 The following legend is applicable only to US Government
 contracts under FAR:
  
                    RESTRICTED RIGHTS LEGEND
  
 Use, reproduction and disclosure by the US Government is
 subject to restrictions as set forth in subparagraphs (a)
 and (c) of the Commercial Computer Software - Restricted
 Rights clause in FAR 52.227-19.
  
 Gaussian, Inc.
 340 Quinnipiac St., Bldg. 40, Wallingford CT 06492
  
  
 ---------------------------------------------------------------
 Warning -- This program may not be used in any manner that
 competes with the business of Gaussian, Inc. or will provide
 assistance to any competitor of Gaussian, Inc.  The licensee
 of this program is prohibited from giving any competitor of
 Gaussian, Inc. access to this program.  By using this program,
 the user acknowledges that Gaussian, Inc. is engaged in the
 business of creating and licensing software in the field of
 computational chemistry and represents and warrants to the
 licensee that it is not a competitor of Gaussian, Inc. and that
 it will not use this program in any manner prohibited above.
 ---------------------------------------------------------------
  

 Cite this work as:
 Gaussian 09, Revision A.01,
 M. J. Frisch, G. W. Trucks, H. B. Schlegel, G. E. Scuseria, 
 M. A. Robb, J. R. Cheeseman, G. Scalmani, V. Barone, B. Mennucci, 
 G. A. Petersson, H. Nakatsuji, M. Caricato, X. Li, H. P. Hratchian, 
 A. F. Izmaylov, J. Bloino, G. Zheng, J. L. Sonnenberg, M. Hada, 
 M. Ehara, K. Toyota, R. Fukuda, J. Hasegawa, M. Ishida, T. Nakajima, 
 Y. Honda, O. Kitao, H. Nakai, T. Vreven, J. A. Montgomery, Jr., 
 J. E. Peralta, F. Ogliaro, M. Bearpark, J. J. Heyd, E. Brothers, 
 K. N. Kudin, V. N. Staroverov, R. Kobayashi, J. Normand, 
 K. Raghavachari, A. Rendell, J. C. Burant, S. S. Iyengar, J. Tomasi, 
 M. Cossi, N. Rega, J. M. Millam, M. Klene, J. E. Knox, J. B. Cross, 
 V. Bakken, C. Adamo, J. Jaramillo, R. Gomperts, R. E. Stratmann, 
 O. Yazyev, A. J. Austin, R. Cammi, C. Pomelli, J. W. Ochterski, 
 R. L. Martin, K. Morokuma, V. G. Zakrzewski, G. A. Voth, 
 P. Salvador, J. J. Dannenberg, S. Dapprich, A. D. Daniels, 
 O. Farkas, J. B. Foresman, J. V. Ortiz, J. Cioslowski, 
 and D. J. Fox, Gaussian, Inc., Wallingford CT, 2009.
 
 ******************************************
 Gaussian 09:  EM64L-G09RevA.01  8-May-2009
                21-Oct-2019 
 ******************************************
 %chk=freq.chk
 %NProcShared=4
 Will use up to    4 processors via shared memory.
 Default route:  MP2=Direct MaxDisk=1000GB DenFit
 ---------------------------------------------------
 # cam-b3lyp/6-31G* opt Freq=(savenormalmodes,raman)
 ---------------------------------------------------
 1/14=-1,18=20,19=15,26=3,38=1/1,3;
 2/9=110,12=2,17=6,18=5,40=1/2;
 3/5=1,6=6,7=1,11=2,16=1,25=1,30=1,71=1,74=-40,82=47/1,2,3;
 4//1;
 5/5=2,38=5/2;
 6/7=2,8=2,9=2,10=2,28=1/1;
 7/92=1/1,2,3,16;
 1/14=-1,18=20,19=15/3(2);
 2/9=110/2;
 99//99;
 2/9=110/2;
 3/5=1,6=6,7=1,11=2,16=1,25=1,30=1,71=1,74=-40,82=47/1,2,3;
 4/5=5,16=3/1;
 5/5=2,38=5/2;
 7/92=1/1,2,3,16;
 1/14=-1,18=20,19=15/3(-5);
 2/9=110/2;
 6/7=2,8=2,9=2,10=2,19=2,28=1/1;
 99/9=1/99;
 -----
 Title
 -----
 Symbolic Z-matrix:
 Charge =  0 Multiplicity = 1
 6                    -0.15359   0.38985  -0.00012 
 7                     1.08781  -0.15869  -0.00009 
 8                    -1.18865  -0.23917   0.00005 
 1                     1.17741  -1.1643    0.00018 
 1                     1.92007   0.4088    0.00031 
 1                    -0.12309   1.49569   0.00006 
 

 GradGradGradGradGradGradGradGradGradGradGradGradGradGradGradGradGradGrad
 Berny optimization.
 Initialization pass.
                           ----------------------------
                           !    Initial Parameters    !
                           ! (Angstroms and Degrees)  !
 --------------------------                            --------------------------
 ! Name  Definition              Value          Derivative Info.                !
 --------------------------------------------------------------------------------
 ! R1    R(1,2)                  1.3572         estimate D2E/DX2                !
 ! R2    R(1,3)                  1.2112         estimate D2E/DX2                !
 ! R3    R(1,6)                  1.1063         estimate D2E/DX2                !
 ! R4    R(2,4)                  1.0096         estimate D2E/DX2                !
 ! R5    R(2,5)                  1.0073         estimate D2E/DX2                !
 ! A1    A(2,1,3)              124.8735         estimate D2E/DX2                !
 ! A2    A(2,1,6)              112.2593         estimate D2E/DX2                !
 ! A3    A(3,1,6)              122.8671         estimate D2E/DX2                !
 ! A4    A(1,2,4)              118.9303         estimate D2E/DX2                !
 ! A5    A(1,2,5)              121.872          estimate D2E/DX2                !
 ! A6    A(4,2,5)              119.1976         estimate D2E/DX2                !
 ! D1    D(3,1,2,4)             -0.0064         estimate D2E/DX2                !
 ! D2    D(3,1,2,5)           -179.9636         estimate D2E/DX2                !
 ! D3    D(6,1,2,4)            179.9728         estimate D2E/DX2                !
 ! D4    D(6,1,2,5)              0.0155         estimate D2E/DX2                !
 --------------------------------------------------------------------------------
 Trust Radius=3.00D-01 FncErr=1.00D-07 GrdErr=1.00D-06
 Number of steps in this run=  25 maximum allowed number of steps= 100.
 GradGradGradGradGradGradGradGradGradGradGradGradGradGradGradGradGradGrad

                          Input orientation:                          
 ---------------------------------------------------------------------
 Center     Atomic      Atomic             Coordinates (Angstroms)
 Number     Number       Type             X           Y           Z
 ---------------------------------------------------------------------
      1          6           0       -0.153588    0.389845   -0.000116
      2          7           0        1.087813   -0.158690   -0.000092
      3          8           0       -1.188645   -0.239167    0.000052
      4          1           0        1.177406   -1.164300    0.000175
      5          1           0        1.920074    0.408803    0.000305
      6          1           0       -0.123090    1.495692    0.000063
 ---------------------------------------------------------------------
                    Distance matrix (angstroms):
                    1          2          3          4          5
     1  C    0.000000
     2  N    1.357191   0.000000
     3  O    1.211197   2.277880   0.000000
     4  H    2.046194   1.009593   2.540486   0.000000
     5  H    2.073749   1.007327   3.175531   1.739600   0.000000
     6  H    1.106267   2.050187   2.035962   2.960886   2.314270
                    6
     6  H    0.000000
 Stoichiometry    CH3NO
 Framework group  C1[X(CH3NO)]
 Deg. of freedom    12
 Full point group                 C1      NOp   1
 Largest Abelian subgroup         C1      NOp   1
 Largest concise Abelian subgroup C1      NOp   1
                         Standard orientation:                         
 ---------------------------------------------------------------------
 Center     Atomic      Atomic             Coordinates (Angstroms)
 Number     Number       Type             X           Y           Z
 ---------------------------------------------------------------------
      1          6           0       -0.161453    0.387024   -0.000100
      2          7           0        1.081733   -0.157452   -0.000076
      3          8           0       -1.194449   -0.245367    0.000068
      4          1           0        1.174611   -1.162764    0.000191
      5          1           0        1.912136    0.412757    0.000321
      6          1           0       -0.134568    1.492965    0.000079
 ---------------------------------------------------------------------
 Rotational constants (GHZ):     73.6451615     11.3730058      9.8516222
 Standard basis: 6-31G(d) (6D, 7F)
 There are    51 symmetry adapted basis functions of A   symmetry.
 Integral buffers will be    131072 words long.
 Raffenetti 2 integral format.
 Two-electron integral symmetry is turned on.
    51 basis functions,    96 primitive gaussians,    51 cartesian basis functions
    12 alpha electrons       12 beta electrons
       nuclear repulsion energy        71.2532654932 Hartrees.
 NAtoms=    6 NActive=    6 NUniq=    6 SFac= 7.50D-01 NAtFMM=   80 NAOKFM=F Big=F
 Standard density basis: Auto (5D, 7F)
   201 Density fitting functions
 There are   201 symmetry adapted density basis functions of A   symmetry.
 One-electron integrals computed using PRISM.
 NBasis=    51 RedAO= T  NBF=    51
 NBsUse=    51 1.00D-06 NBFU=    51
 Harris functional with IExCor=20419 diagonalized for initial guess.
 ExpMin= 1.61D-01 ExpMax= 5.48D+03 ExpMxC= 8.25D+02 IAcc=1 IRadAn=         1 AccDes= 0.00D+00
 HarFok:  IExCor=20419 AccDes= 0.00D+00 IRadAn=         1 IDoV= 1
 ScaDFX=  1.000000  1.000000  1.000000  1.000000
 FoFCou: FMM=F IPFlag=           0 FMFlag=      100000 FMFlg1=           0
         NFxFlg=           0 DoJE=T BraDBF=F KetDBF=T FulRan=T
         Omega=  0.000000  0.000000  1.000000  0.000000  0.000000 ICntrl=     500 IOpCl=  0
         NMat0=    1 NMatS0=    1 NMatT0=    0 NMatD0=    1 NMtDS0=    0 NMtDT0=    0
         I1Cent=           4 NGrid=           0.
 Petite list used in FoFCou.
 Initial guess orbital symmetries:
       Occupied  (A) (A) (A) (A) (A) (A) (A) (A) (A) (A) (A) (A)
       Virtual   (A) (A) (A) (A) (A) (A) (A) (A) (A) (A) (A) (A)
                 (A) (A) (A) (A) (A) (A) (A) (A) (A) (A) (A) (A)
                 (A) (A) (A) (A) (A) (A) (A) (A) (A) (A) (A) (A)
                 (A) (A) (A)
 The electronic state of the initial guess is 1-A.
 Requested convergence on RMS density matrix=1.00D-08 within 128 cycles.
 Requested convergence on MAX density matrix=1.00D-06.
 Requested convergence on             energy=1.00D-06.
 No special actions if energy rises.
 Integral accuracy reduced to 1.0D-05 until final iterations.
 FoFJK:  IHMeth= 1 ICntrl=     0 DoSepK=T KAlg= 1 I1Cent= 0 FoldK=F
 FoFJK:  IHMeth= 1 ICntrl=     0 DoSepK=T KAlg= 1 I1Cent= 0 FoldK=F
 FoFJK:  IHMeth= 1 ICntrl=     0 DoSepK=T KAlg= 1 I1Cent= 0 FoldK=F
 FoFJK:  IHMeth= 1 ICntrl=     0 DoSepK=T KAlg= 1 I1Cent= 0 FoldK=F
 FoFJK:  IHMeth= 1 ICntrl=     0 DoSepK=T KAlg= 1 I1Cent= 0 FoldK=F
 FoFJK:  IHMeth= 1 ICntrl=     0 DoSepK=T KAlg= 1 I1Cent= 0 FoldK=F
 FoFJK:  IHMeth= 1 ICntrl=     0 DoSepK=T KAlg= 1 I1Cent= 0 FoldK=F
 FoFJK:  IHMeth= 1 ICntrl=     0 DoSepK=T KAlg= 1 I1Cent= 0 FoldK=F
 Initial convergence to 1.0D-05 achieved.  Increase integral accuracy.
 FoFJK:  IHMeth= 1 ICntrl=     0 DoSepK=T KAlg= 1 I1Cent= 0 FoldK=F
 FoFJK:  IHMeth= 1 ICntrl=     0 DoSepK=T KAlg= 1 I1Cent= 0 FoldK=F
 FoFJK:  IHMeth= 1 ICntrl=     0 DoSepK=T KAlg= 1 I1Cent= 0 FoldK=F
 FoFJK:  IHMeth= 1 ICntrl=     0 DoSepK=T KAlg= 1 I1Cent= 0 FoldK=F
 FoFJK:  IHMeth= 1 ICntrl=     0 DoSepK=T KAlg= 1 I1Cent= 0 FoldK=F
 FoFJK:  IHMeth= 1 ICntrl=     0 DoSepK=T KAlg= 1 I1Cent= 0 FoldK=F
 SCF Done:  E(RCAM-B3LYP) =  -169.815119172     A.U. after   14 cycles
             Convg  =    0.4779D-08             -V/T =  2.0087

 **********************************************************************

            Population analysis using the SCF density.

 **********************************************************************

 Orbital symmetries:
       Occupied  (A) (A) (A) (A) (A) (A) (A) (A) (A) (A) (A) (A)
       Virtual   (A) (A) (A) (A) (A) (A) (A) (A) (A) (A) (A) (A)
                 (A) (A) (A) (A) (A) (A) (A) (A) (A) (A) (A) (A)
                 (A) (A) (A) (A) (A) (A) (A) (A) (A) (A) (A) (A)
                 (A) (A) (A)
 The electronic state is 1-A.
 Alpha  occ. eigenvalues --  -19.18743 -14.43571 -10.36378  -1.11384  -0.98893
 Alpha  occ. eigenvalues --   -0.70007  -0.62817  -0.54796  -0.47732  -0.47204
 Alpha  occ. eigenvalues --   -0.33329  -0.31831
 Alpha virt. eigenvalues --    0.08893   0.12422   0.16106   0.21811   0.32234
 Alpha virt. eigenvalues --    0.40620   0.59229   0.61172   0.71289   0.74598
 Alpha virt. eigenvalues --    0.76744   0.77681   0.90434   0.92817   0.93910
 Alpha virt. eigenvalues --    0.95362   1.07507   1.14279   1.27876   1.36397
 Alpha virt. eigenvalues --    1.44724   1.54564   1.57919   1.76003   1.85093
 Alpha virt. eigenvalues --    1.92698   1.94709   2.11310   2.18183   2.35420
 Alpha virt. eigenvalues --    2.37184   2.56703   2.71168   2.74335   2.99134
 Alpha virt. eigenvalues --    3.08910   3.80967   3.93766   4.25131
          Condensed to atoms (all electrons):
              1          2          3          4          5          6
     1  C    4.400962   0.256561   0.621729  -0.004229  -0.007599   0.372872
     2  N    0.256561   7.077473  -0.089079   0.289561   0.298719  -0.123462
     3  O    0.621729  -0.089079   7.960504   0.006858   0.003065  -0.056321
     4  H   -0.004229   0.289561   0.006858   0.370727  -0.018478   0.007222
     5  H   -0.007599   0.298719   0.003065  -0.018478   0.378486   0.004879
     6  H    0.372872  -0.123462  -0.056321   0.007222   0.004879   0.687254
 Mulliken atomic charges:
              1
     1  C    0.359704
     2  N   -0.709773
     3  O   -0.446755
     4  H    0.348340
     5  H    0.340929
     6  H    0.107557
 Sum of Mulliken atomic charges =   0.00000
 Mulliken charges with hydrogens summed into heavy atoms:
              1
     1  C    0.467261
     2  N   -0.020505
     3  O   -0.446755
 Sum of Mulliken charges with hydrogens summed into heavy atoms =   0.00000
 Electronic spatial extent (au):  <R**2>=            145.2884
 Charge=              0.0000 electrons
 Dipole moment (field-independent basis, Debye):
    X=              3.7842    Y=              0.7919    Z=              0.0009  Tot=              3.8662
 Quadrupole moment (field-independent basis, Debye-Ang):
   XX=            -17.3288   YY=            -14.9936   ZZ=            -18.4208
   XY=             -1.0841   XZ=              0.0022   YZ=             -0.0002
 Traceless Quadrupole moment (field-independent basis, Debye-Ang):
   XX=             -0.4144   YY=              1.9208   ZZ=             -1.5064
   XY=             -1.0841   XZ=              0.0022   YZ=             -0.0002
 Octapole moment (field-independent basis, Debye-Ang**2):
  XXX=             11.9682  YYY=             -2.6333  ZZZ=              0.0012  XYY=              2.6672
  XXY=              0.8664  XXZ=              0.0036  XZZ=             -1.5510  YZZ=             -0.3018
  YYZ=              0.0011  XYZ=             -0.0002
 Hexadecapole moment (field-independent basis, Debye-Ang**3):
 XXXX=           -104.5884 YYYY=            -32.6656 ZZZZ=            -15.5661 XXXY=              2.6366
 XXXZ=              0.0077 YYYX=             -2.9571 YYYZ=              0.0002 ZZZX=              0.0020
 ZZZY=              0.0003 XXYY=            -22.1827 XXZZ=            -23.4684 YYZZ=             -8.9588
 XXYZ=              0.0003 YYXZ=              0.0013 ZZXY=              0.3269
 N-N= 7.125326549323D+01 E-N=-5.403585499824D+02  KE= 1.683481732904D+02
 Calling FoFJK, ICntrl=      2127 FMM=F ISym2X=0 I1Cent= 0 IOpClX= 0 NMat=1 NMatS=1 NMatT=0.
 FoFJK:  IHMeth= 1 ICntrl=  2127 DoSepK=T KAlg= 1 I1Cent= 0 FoldK=F
 ***** Axes restored to original set *****
 -------------------------------------------------------------------
 Center     Atomic                   Forces (Hartrees/Bohr)
 Number     Number              X              Y              Z
 -------------------------------------------------------------------
      1        6          -0.000236533    0.000049460    0.000055222
      2        7          -0.000057323   -0.000020970   -0.000011659
      3        8           0.000244983   -0.000068055   -0.000021513
      4        1           0.000025394   -0.000154208   -0.000000365
      5        1          -0.000027198    0.000026511   -0.000003219
      6        1           0.000050677    0.000167261   -0.000018466
 -------------------------------------------------------------------
 Cartesian Forces:  Max     0.000244983 RMS     0.000101975

 GradGradGradGradGradGradGradGradGradGradGradGradGradGradGradGradGradGrad
 Berny optimization.
 Internal  Forces:  Max     0.000248888 RMS     0.000111668
 Search for a local minimum.
 Step number   1 out of a maximum of   25
 All quantities printed in internal units (Hartrees-Bohrs-Radians)
 Mixed Optimization -- En-DIIS/RFO-DIIS
 Second derivative matrix not updated -- first step.
 The second derivative matrix:
                          R1        R2        R3        R4        R5
           R1           0.53519
           R2           0.00000   0.99392
           R3           0.00000   0.00000   0.32998
           R4           0.00000   0.00000   0.00000   0.46041
           R5           0.00000   0.00000   0.00000   0.00000   0.46423
           A1           0.00000   0.00000   0.00000   0.00000   0.00000
           A2           0.00000   0.00000   0.00000   0.00000   0.00000
           A3           0.00000   0.00000   0.00000   0.00000   0.00000
           A4           0.00000   0.00000   0.00000   0.00000   0.00000
           A5           0.00000   0.00000   0.00000   0.00000   0.00000
           A6           0.00000   0.00000   0.00000   0.00000   0.00000
           D1           0.00000   0.00000   0.00000   0.00000   0.00000
           D2           0.00000   0.00000   0.00000   0.00000   0.00000
           D3           0.00000   0.00000   0.00000   0.00000   0.00000
           D4           0.00000   0.00000   0.00000   0.00000   0.00000
                          A1        A2        A3        A4        A5
           A1           0.25000
           A2           0.00000   0.16000
           A3           0.00000   0.00000   0.16000
           A4           0.00000   0.00000   0.00000   0.16000
           A5           0.00000   0.00000   0.00000   0.00000   0.16000
           A6           0.00000   0.00000   0.00000   0.00000   0.00000
           D1           0.00000   0.00000   0.00000   0.00000   0.00000
           D2           0.00000   0.00000   0.00000   0.00000   0.00000
           D3           0.00000   0.00000   0.00000   0.00000   0.00000
           D4           0.00000   0.00000   0.00000   0.00000   0.00000
                          A6        D1        D2        D3        D4
           A6           0.16000
           D1           0.00000   0.02258
           D2           0.00000   0.00000   0.02258
           D3           0.00000   0.00000   0.00000   0.02258
           D4           0.00000   0.00000   0.00000   0.00000   0.02258
     Eigenvalues ---    0.02258   0.02258   0.02258   0.16000   0.16000
     Eigenvalues ---    0.16000   0.22000   0.32998   0.46041   0.46423
     Eigenvalues ---    0.53519   0.993921000.000001000.000001000.00000
 RFO step:  Lambda=-7.15080363D-07 EMin= 2.25806287D-02
 Linear search not attempted -- first point.
 Iteration  1 RMS(Cart)=  0.00061151 RMS(Int)=  0.00000050
 Iteration  2 RMS(Cart)=  0.00000041 RMS(Int)=  0.00000019
 Variable       Old X    -DE/DX   Delta X   Delta X   Delta X     New X
                                 (Linear)    (Quad)   (Total)
    R1        2.56472   0.00001   0.00000   0.00001   0.00001   2.56473
    R2        2.28883  -0.00017   0.00000  -0.00018  -0.00018   2.28866
    R3        2.09054   0.00017   0.00000   0.00051   0.00051   2.09105
    R4        1.90785   0.00016   0.00000   0.00034   0.00034   1.90819
    R5        1.90357  -0.00001   0.00000  -0.00002  -0.00002   1.90355
    A1        2.17945  -0.00025   0.00000  -0.00113  -0.00113   2.17832
    A2        1.95930   0.00008   0.00000   0.00026   0.00026   1.95955
    A3        2.14444   0.00017   0.00000   0.00087   0.00087   2.14531
    A4        2.07573   0.00004   0.00000   0.00023   0.00023   2.07596
    A5        2.12707  -0.00005   0.00000  -0.00033  -0.00033   2.12674
    A6        2.08039   0.00002   0.00000   0.00010   0.00010   2.08049
    D1       -0.00011  -0.00002   0.00000  -0.00083  -0.00083  -0.00094
    D2       -3.14096  -0.00002   0.00000  -0.00096  -0.00096   3.14127
    D3        3.14112   0.00002   0.00000   0.00086   0.00086  -3.14121
    D4        0.00027   0.00002   0.00000   0.00073   0.00073   0.00100
         Item               Value     Threshold  Converged?
 Maximum Force            0.000249     0.000450     YES
 RMS     Force            0.000112     0.000300     YES
 Maximum Displacement     0.001115     0.001800     YES
 RMS     Displacement     0.000612     0.001200     YES
 Predicted change in Energy=-3.574966D-07
 Optimization completed.
    -- Stationary point found.
                           ----------------------------
                           !   Optimized Parameters   !
                           ! (Angstroms and Degrees)  !
 --------------------------                            --------------------------
 ! Name  Definition              Value          Derivative Info.                !
 --------------------------------------------------------------------------------
 ! R1    R(1,2)                  1.3572         -DE/DX =    0.0                 !
 ! R2    R(1,3)                  1.2112         -DE/DX =   -0.0002              !
 ! R3    R(1,6)                  1.1063         -DE/DX =    0.0002              !
 ! R4    R(2,4)                  1.0096         -DE/DX =    0.0002              !
 ! R5    R(2,5)                  1.0073         -DE/DX =    0.0                 !
 ! A1    A(2,1,3)              124.8735         -DE/DX =   -0.0002              !
 ! A2    A(2,1,6)              112.2593         -DE/DX =    0.0001              !
 ! A3    A(3,1,6)              122.8671         -DE/DX =    0.0002              !
 ! A4    A(1,2,4)              118.9303         -DE/DX =    0.0                 !
 ! A5    A(1,2,5)              121.872          -DE/DX =   -0.0001              !
 ! A6    A(4,2,5)              119.1976         -DE/DX =    0.0                 !
 ! D1    D(3,1,2,4)             -0.0064         -DE/DX =    0.0                 !
 ! D2    D(3,1,2,5)            180.0364         -DE/DX =    0.0                 !
 ! D3    D(6,1,2,4)           -180.0272         -DE/DX =    0.0                 !
 ! D4    D(6,1,2,5)              0.0155         -DE/DX =    0.0                 !
 --------------------------------------------------------------------------------
 GradGradGradGradGradGradGradGradGradGradGradGradGradGradGradGradGradGrad

                          Input orientation:                          
 ---------------------------------------------------------------------
 Center     Atomic      Atomic             Coordinates (Angstroms)
 Number     Number       Type             X           Y           Z
 ---------------------------------------------------------------------
      1          6           0       -0.153588    0.389845   -0.000116
      2          7           0        1.087813   -0.158690   -0.000092
      3          8           0       -1.188645   -0.239167    0.000052
      4          1           0        1.177406   -1.164300    0.000175
      5          1           0        1.920074    0.408803    0.000305
      6          1           0       -0.123090    1.495692    0.000063
 ---------------------------------------------------------------------
                    Distance matrix (angstroms):
                    1          2          3          4          5
     1  C    0.000000
     2  N    1.357191   0.000000
     3  O    1.211197   2.277880   0.000000
     4  H    2.046194   1.009593   2.540486   0.000000
     5  H    2.073749   1.007327   3.175531   1.739600   0.000000
     6  H    1.106267   2.050187   2.035962   2.960886   2.314270
                    6
     6  H    0.000000
 Stoichiometry    CH3NO
 Framework group  C1[X(CH3NO)]
 Deg. of freedom    12
 Full point group                 C1      NOp   1
 Largest Abelian subgroup         C1      NOp   1
 Largest concise Abelian subgroup C1      NOp   1
                         Standard orientation:                         
 ---------------------------------------------------------------------
 Center     Atomic      Atomic             Coordinates (Angstroms)
 Number     Number       Type             X           Y           Z
 ---------------------------------------------------------------------
      1          6           0       -0.161453    0.387024   -0.000100
      2          7           0        1.081733   -0.157452   -0.000076
      3          8           0       -1.194449   -0.245367    0.000068
      4          1           0        1.174611   -1.162764    0.000191
      5          1           0        1.912136    0.412757    0.000321
      6          1           0       -0.134568    1.492965    0.000079
 ---------------------------------------------------------------------
 Rotational constants (GHZ):     73.6451615     11.3730058      9.8516222
 1\1\GINC-CLODOMIRA\FOpt\RCAM-B3LYP\6-31G(d)\C1H3N1O1\DIEGOA\21-Oct-201
 9\0\\# cam-b3lyp/6-31G* opt Freq=(savenormalmodes,raman)\\Title\\0,1\C
 ,-0.153588,0.389845,-0.000116\N,1.087813,-0.15869,-0.000092\O,-1.18864
 5,-0.239167,0.000052\H,1.177406,-1.1643,0.000175\H,1.920074,0.408803,0
 .000305\H,-0.12309,1.495692,0.000063\\Version=EM64L-G09RevA.01\State=1
 -A\HF=-169.8151192\RMSD=4.779e-09\RMSF=1.020e-04\Dipole=1.4898322,0.30
 66931,0.0003455\Quadrupole=-0.3133295,1.4333162,-1.1199867,-0.8002922,
 0.0016395,-0.0001332\PG=C01 [X(C1H3N1O1)]\\@


 FIREWORKS ENDED
 AND SPECTATORS GONE AWAY....
 AH, HOW VAST AND DARK
                     SHIKI
 Job cpu time:  0 days  0 hours  0 minutes 12.7 seconds.
 File lengths (MBytes):  RWF=      5 Int=      0 D2E=      0 Chk=      1 Scr=      1
 Normal termination of Gaussian 09 at Mon Oct 21 19:19:43 2019.
 Link1:  Proceeding to internal job step number  2.
 ----------------------------------------------------------------------
 #N Geom=AllCheck Guess=TCheck SCRF=Check GenChk RCAM-B3LYP/6-31G(d) Fr
 eq
 ----------------------------------------------------------------------
 1/10=4,29=7,30=1,38=1,40=1/1,3;
 2/12=2,40=1/2;
 3/5=1,6=6,7=1,11=2,14=-4,16=1,25=1,30=1,70=2,71=2,74=-40,82=47,116=1/1,2,3;
 4/5=101/1;
 5/5=2,98=1/2;
 8/6=4,10=90,11=11/1;
 10/13=10,15=4/2;
 11/6=3,8=1,9=11,15=111,16=1/1,2,10;
 10/6=1/2;
 6/7=2,8=2,9=2,10=2,18=1,28=1/1;
 7/8=1,10=1,25=1,92=1/1,2,3,16;
 1/10=4,30=1/3;
 99//99;
 -----
 Title
 -----
 Redundant internal coordinates taken from checkpoint file:
 freq.chk
 Charge =  0 Multiplicity = 1
 C,0,-0.153588,0.389845,-0.000116
 N,0,1.087813,-0.15869,-0.000092
 O,0,-1.188645,-0.239167,0.000052
 H,0,1.177406,-1.1643,0.000175
 H,0,1.920074,0.408803,0.000305
 H,0,-0.12309,1.495692,0.000063
 Recover connectivity data from disk.

 GradGradGradGradGradGradGradGradGradGradGradGradGradGradGradGradGradGrad
 Berny optimization.
 Initialization pass.
                           ----------------------------
                           !    Initial Parameters    !
                           ! (Angstroms and Degrees)  !
 --------------------------                            --------------------------
 ! Name  Definition              Value          Derivative Info.                !
 --------------------------------------------------------------------------------
 ! R1    R(1,2)                  1.3572         calculate D2E/DX2 analytically  !
 ! R2    R(1,3)                  1.2112         calculate D2E/DX2 analytically  !
 ! R3    R(1,6)                  1.1063         calculate D2E/DX2 analytically  !
 ! R4    R(2,4)                  1.0096         calculate D2E/DX2 analytically  !
 ! R5    R(2,5)                  1.0073         calculate D2E/DX2 analytically  !
 ! A1    A(2,1,3)              124.8735         calculate D2E/DX2 analytically  !
 ! A2    A(2,1,6)              112.2593         calculate D2E/DX2 analytically  !
 ! A3    A(3,1,6)              122.8671         calculate D2E/DX2 analytically  !
 ! A4    A(1,2,4)              118.9303         calculate D2E/DX2 analytically  !
 ! A5    A(1,2,5)              121.872          calculate D2E/DX2 analytically  !
 ! A6    A(4,2,5)              119.1976         calculate D2E/DX2 analytically  !
 ! D1    D(3,1,2,4)             -0.0064         calculate D2E/DX2 analytically  !
 ! D2    D(3,1,2,5)           -179.9636         calculate D2E/DX2 analytically  !
 ! D3    D(6,1,2,4)            179.9728         calculate D2E/DX2 analytically  !
 ! D4    D(6,1,2,5)              0.0155         calculate D2E/DX2 analytically  !
 --------------------------------------------------------------------------------
 Trust Radius=3.00D-01 FncErr=1.00D-07 GrdErr=1.00D-07
 Number of steps in this run=   2 maximum allowed number of steps=   2.
 GradGradGradGradGradGradGradGradGradGradGradGradGradGradGradGradGradGrad

                          Input orientation:                          
 ---------------------------------------------------------------------
 Center     Atomic      Atomic             Coordinates (Angstroms)
 Number     Number       Type             X           Y           Z
 ---------------------------------------------------------------------
      1          6           0       -0.153588    0.389845   -0.000116
      2          7           0        1.087813   -0.158690   -0.000092
      3          8           0       -1.188645   -0.239167    0.000052
      4          1           0        1.177406   -1.164300    0.000175
      5          1           0        1.920074    0.408803    0.000305
      6          1           0       -0.123090    1.495692    0.000063
 ---------------------------------------------------------------------
                    Distance matrix (angstroms):
                    1          2          3          4          5
     1  C    0.000000
     2  N    1.357191   0.000000
     3  O    1.211197   2.277880   0.000000
     4  H    2.046194   1.009593   2.540486   0.000000
     5  H    2.073749   1.007327   3.175531   1.739600   0.000000
     6  H    1.106267   2.050187   2.035962   2.960886   2.314270
                    6
     6  H    0.000000
 Stoichiometry    CH3NO
 Framework group  C1[X(CH3NO)]
 Deg. of freedom    12
 Full point group                 C1      NOp   1
 Largest Abelian subgroup         C1      NOp   1
 Largest concise Abelian subgroup C1      NOp   1
                         Standard orientation:                         
 ---------------------------------------------------------------------
 Center     Atomic      Atomic             Coordinates (Angstroms)
 Number     Number       Type             X           Y           Z
 ---------------------------------------------------------------------
      1          6           0       -0.161453    0.387024   -0.000100
      2          7           0        1.081733   -0.157452   -0.000076
      3          8           0       -1.194449   -0.245367    0.000068
      4          1           0        1.174611   -1.162764    0.000191
      5          1           0        1.912136    0.412757    0.000321
      6          1           0       -0.134568    1.492965    0.000079
 ---------------------------------------------------------------------
 Rotational constants (GHZ):     73.6451615     11.3730058      9.8516222
 Standard basis: 6-31G(d) (6D, 7F)
 There are    51 symmetry adapted basis functions of A   symmetry.
 Integral buffers will be    131072 words long.
 Raffenetti 2 integral format.
 Two-electron integral symmetry is turned on.
    51 basis functions,    96 primitive gaussians,    51 cartesian basis functions
    12 alpha electrons       12 beta electrons
       nuclear repulsion energy        71.2532654932 Hartrees.
 NAtoms=    6 NActive=    6 NUniq=    6 SFac= 7.50D-01 NAtFMM=   80 NAOKFM=F Big=F
 Standard density basis: Auto (5D, 7F)
   201 Density fitting functions
 There are   201 symmetry adapted density basis functions of A   symmetry.
 One-electron integrals computed using PRISM.
 NBasis=    51 RedAO= T  NBF=    51
 NBsUse=    51 1.00D-06 NBFU=    51
 Initial guess read from the checkpoint file:  freq.chk
 B after Tr=     0.000000    0.000000    0.000000
         Rot=    1.000000    0.000000    0.000000    0.000000 Ang=   0.00 deg.
 Initial guess orbital symmetries:
       Occupied  (A) (A) (A) (A) (A) (A) (A) (A) (A) (A) (A) (A)
       Virtual   (A) (A) (A) (A) (A) (A) (A) (A) (A) (A) (A) (A)
                 (A) (A) (A) (A) (A) (A) (A) (A) (A) (A) (A) (A)
                 (A) (A) (A) (A) (A) (A) (A) (A) (A) (A) (A) (A)
                 (A) (A) (A)
 Requested convergence on RMS density matrix=1.00D-08 within 128 cycles.
 Requested convergence on MAX density matrix=1.00D-06.
 Requested convergence on             energy=1.00D-06.
 No special actions if energy rises.
 FoFJK:  IHMeth= 1 ICntrl=     0 DoSepK=T KAlg= 1 I1Cent= 0 FoldK=F
 SCF Done:  E(RCAM-B3LYP) =  -169.815119172     A.U. after    1 cycles
             Convg  =    0.1639D-08             -V/T =  2.0087
 Range of M.O.s used for correlation:     1    51
 NBasis=    51 NAE=    12 NBE=    12 NFC=     0 NFV=     0
 NROrb=     51 NOA=    12 NOB=    12 NVA=    39 NVB=    39
          Differentiating once with respect to electric field.
                with respect to dipole field.
          Electric field/nuclear overlap derivatives assumed to be zero.
          There are     3 degrees of freedom in the 1st order CPHF.  IDoFFX=0.
      3 vectors produced by pass  0 Test12= 1.56D-14 3.33D-08 XBig12= 1.55D+01 3.03D+00.
 AX will form     3 AO Fock derivatives at one time.
 FoFJK:  IHMeth= 1 ICntrl=     0 DoSepK=T KAlg= 1 I1Cent= 0 FoldK=F
      3 vectors produced by pass  1 Test12= 1.56D-14 3.33D-08 XBig12= 3.92D+00 7.34D-01.
 FoFJK:  IHMeth= 1 ICntrl=     0 DoSepK=T KAlg= 1 I1Cent= 0 FoldK=F
      3 vectors produced by pass  2 Test12= 1.56D-14 3.33D-08 XBig12= 3.31D-01 1.60D-01.
 FoFJK:  IHMeth= 1 ICntrl=     0 DoSepK=T KAlg= 1 I1Cent= 0 FoldK=F
      3 vectors produced by pass  3 Test12= 1.56D-14 3.33D-08 XBig12= 4.65D-02 6.41D-02.
 FoFJK:  IHMeth= 1 ICntrl=     0 DoSepK=T KAlg= 1 I1Cent= 0 FoldK=F
      3 vectors produced by pass  4 Test12= 1.56D-14 3.33D-08 XBig12= 4.44D-03 2.38D-02.
 FoFJK:  IHMeth= 1 ICntrl=     0 DoSepK=T KAlg= 1 I1Cent= 0 FoldK=F
      3 vectors produced by pass  5 Test12= 1.56D-14 3.33D-08 XBig12= 1.34D-04 3.54D-03.
 FoFJK:  IHMeth= 1 ICntrl=     0 DoSepK=T KAlg= 1 I1Cent= 0 FoldK=F
      3 vectors produced by pass  6 Test12= 1.56D-14 3.33D-08 XBig12= 2.16D-06 5.78D-04.
 FoFJK:  IHMeth= 1 ICntrl=     0 DoSepK=T KAlg= 1 I1Cent= 0 FoldK=F
      3 vectors produced by pass  7 Test12= 1.56D-14 3.33D-08 XBig12= 2.75D-08 5.59D-05.
 FoFJK:  IHMeth= 1 ICntrl=     0 DoSepK=T KAlg= 1 I1Cent= 0 FoldK=F
      3 vectors produced by pass  8 Test12= 1.56D-14 3.33D-08 XBig12= 7.58D-10 8.83D-06.
 FoFJK:  IHMeth= 1 ICntrl=     0 DoSepK=T KAlg= 1 I1Cent= 0 FoldK=F
      2 vectors produced by pass  9 Test12= 1.56D-14 3.33D-08 XBig12= 1.20D-11 9.86D-07.
 FoFJK:  IHMeth= 1 ICntrl=     0 DoSepK=T KAlg= 1 I1Cent= 0 FoldK=F
      1 vectors produced by pass 10 Test12= 1.56D-14 3.33D-08 XBig12= 1.12D-13 8.19D-08.
 FoFJK:  IHMeth= 1 ICntrl=     0 DoSepK=T KAlg= 1 I1Cent= 0 FoldK=F
 Inverted reduced A of dimension    30 with in-core refinement.
 End of Minotr Frequency-dependent properties file   721 does not exist.
 End of Minotr Frequency-dependent properties file   722 does not exist.
 Symmetrizing basis deriv contribution to polar:
 IMax=3 JMax=2 DiffMx= 0.00D+00
 G2DrvN: will do     7 centers at a time, making    1 passes doing MaxLOS=2.
 Calling FoFCou, ICntrl=  3107 FMM=F I1Cent=   0 AccDes= 0.00D+00.
 FoFJK:  IHMeth= 1 ICntrl=  3107 DoSepK=T KAlg= 1 I1Cent= 0 FoldK=F
 FoFDir/FoFCou used for L=0 through L=2.
 End of G2Drv Frequency-dependent properties file   721 does not exist.
 End of G2Drv Frequency-dependent properties file   722 does not exist.
          IDoAtm=111111
          Differentiating once with respect to electric field.
                with respect to dipole field.
          Differentiating once with respect to nuclear coordinates.
 FoFJK:  IHMeth= 1 ICntrl=     0 DoSepK=T KAlg= 1 I1Cent= 0 FoldK=F
          There are    21 degrees of freedom in the 1st order CPHF.  IDoFFX=5.
 Will reuse    3 saved solutions.
     15 vectors produced by pass  0 Test12= 2.23D-15 4.76D-09 XBig12= 1.38D-01 1.63D-01.
 AX will form    15 AO Fock derivatives at one time.
 FoFJK:  IHMeth= 1 ICntrl=     0 DoSepK=T KAlg= 1 I1Cent= 0 FoldK=F
     15 vectors produced by pass  1 Test12= 2.23D-15 4.76D-09 XBig12= 7.01D-02 1.30D-01.
 FoFJK:  IHMeth= 1 ICntrl=     0 DoSepK=T KAlg= 1 I1Cent= 0 FoldK=F
     15 vectors produced by pass  2 Test12= 2.23D-15 4.76D-09 XBig12= 1.12D-03 7.10D-03.
 FoFJK:  IHMeth= 1 ICntrl=     0 DoSepK=T KAlg= 1 I1Cent= 0 FoldK=F
     15 vectors produced by pass  3 Test12= 2.23D-15 4.76D-09 XBig12= 7.39D-06 1.10D-03.
 FoFJK:  IHMeth= 1 ICntrl=     0 DoSepK=T KAlg= 1 I1Cent= 0 FoldK=F
     15 vectors produced by pass  4 Test12= 2.23D-15 4.76D-09 XBig12= 4.57D-08 7.40D-05.
 FoFJK:  IHMeth= 1 ICntrl=     0 DoSepK=T KAlg= 1 I1Cent= 0 FoldK=F
     15 vectors produced by pass  5 Test12= 2.23D-15 4.76D-09 XBig12= 1.44D-10 2.80D-06.
 FoFJK:  IHMeth= 1 ICntrl=     0 DoSepK=T KAlg= 1 I1Cent= 0 FoldK=F
      8 vectors produced by pass  6 Test12= 2.23D-15 4.76D-09 XBig12= 2.44D-13 7.93D-08.
 FoFJK:  IHMeth= 1 ICntrl=     0 DoSepK=T KAlg= 1 I1Cent= 0 FoldK=F
 Inverted reduced A of dimension    98 with in-core refinement.
 FoFJK:  IHMeth= 1 ICntrl=     0 DoSepK=T KAlg= 1 I1Cent= 0 FoldK=F
 Isotropic polarizability for W=    0.000000       19.43 Bohr**3.
 FoFJK:  IHMeth= 1 ICntrl=     0 DoSepK=T KAlg= 1 I1Cent= 0 FoldK=F
 FoFJK:  IHMeth= 1 ICntrl=     0 DoSepK=T KAlg= 1 I1Cent= 0 FoldK=F
 End of Minotr Frequency-dependent properties file   721 does not exist.
 End of Minotr Frequency-dependent properties file   722 does not exist.

 **********************************************************************

            Population analysis using the SCF density.

 **********************************************************************

 Orbital symmetries:
       Occupied  (A) (A) (A) (A) (A) (A) (A) (A) (A) (A) (A) (A)
       Virtual   (A) (A) (A) (A) (A) (A) (A) (A) (A) (A) (A) (A)
                 (A) (A) (A) (A) (A) (A) (A) (A) (A) (A) (A) (A)
                 (A) (A) (A) (A) (A) (A) (A) (A) (A) (A) (A) (A)
                 (A) (A) (A)
 The electronic state is 1-A.
 Alpha  occ. eigenvalues --  -19.18743 -14.43571 -10.36378  -1.11384  -0.98893
 Alpha  occ. eigenvalues --   -0.70007  -0.62817  -0.54796  -0.47732  -0.47204
 Alpha  occ. eigenvalues --   -0.33329  -0.31831
 Alpha virt. eigenvalues --    0.08893   0.12422   0.16106   0.21811   0.32234
 Alpha virt. eigenvalues --    0.40620   0.59229   0.61172   0.71289   0.74598
 Alpha virt. eigenvalues --    0.76744   0.77681   0.90434   0.92817   0.93910
 Alpha virt. eigenvalues --    0.95362   1.07507   1.14279   1.27876   1.36397
 Alpha virt. eigenvalues --    1.44724   1.54564   1.57919   1.76003   1.85093
 Alpha virt. eigenvalues --    1.92698   1.94709   2.11310   2.18183   2.35420
 Alpha virt. eigenvalues --    2.37184   2.56703   2.71168   2.74335   2.99134
 Alpha virt. eigenvalues --    3.08910   3.80967   3.93766   4.25131
          Condensed to atoms (all electrons):
              1          2          3          4          5          6
     1  C    4.400962   0.256562   0.621729  -0.004229  -0.007599   0.372872
     2  N    0.256562   7.077473  -0.089079   0.289561   0.298719  -0.123462
     3  O    0.621729  -0.089079   7.960504   0.006858   0.003065  -0.056321
     4  H   -0.004229   0.289561   0.006858   0.370727  -0.018478   0.007222
     5  H   -0.007599   0.298719   0.003065  -0.018478   0.378486   0.004879
     6  H    0.372872  -0.123462  -0.056321   0.007222   0.004879   0.687254
 Mulliken atomic charges:
              1
     1  C    0.359704
     2  N   -0.709773
     3  O   -0.446755
     4  H    0.348340
     5  H    0.340929
     6  H    0.107557
 Sum of Mulliken atomic charges =   0.00000
 Mulliken charges with hydrogens summed into heavy atoms:
              1
     1  C    0.467261
     2  N   -0.020505
     3  O   -0.446755
 Sum of Mulliken charges with hydrogens summed into heavy atoms =   0.00000
 APT atomic charges:
              1
     1  C    1.074154
     2  N   -0.728357
     3  O   -0.752647
     4  H    0.230944
     5  H    0.233884
     6  H   -0.057980
 Sum of APT charges=   0.00000
 APT Atomic charges with hydrogens summed into heavy atoms:
              1
     1  C    1.016175
     2  N   -0.263528
     3  O   -0.752647
     4  H    0.000000
     5  H    0.000000
     6  H    0.000000
 Sum of APT charges=   0.00000
 Electronic spatial extent (au):  <R**2>=            145.2884
 Charge=              0.0000 electrons
 Dipole moment (field-independent basis, Debye):
    X=              3.7842    Y=              0.7919    Z=              0.0009  Tot=              3.8662
 Quadrupole moment (field-independent basis, Debye-Ang):
   XX=            -17.3288   YY=            -14.9936   ZZ=            -18.4208
   XY=             -1.0841   XZ=              0.0022   YZ=             -0.0002
 Traceless Quadrupole moment (field-independent basis, Debye-Ang):
   XX=             -0.4144   YY=              1.9208   ZZ=             -1.5064
   XY=             -1.0841   XZ=              0.0022   YZ=             -0.0002
 Octapole moment (field-independent basis, Debye-Ang**2):
  XXX=             11.9682  YYY=             -2.6333  ZZZ=              0.0012  XYY=              2.6672
  XXY=              0.8664  XXZ=              0.0036  XZZ=             -1.5510  YZZ=             -0.3018
  YYZ=              0.0011  XYZ=             -0.0002
 Hexadecapole moment (field-independent basis, Debye-Ang**3):
 XXXX=           -104.5884 YYYY=            -32.6656 ZZZZ=            -15.5661 XXXY=              2.6366
 XXXZ=              0.0077 YYYX=             -2.9571 YYYZ=              0.0002 ZZZX=              0.0020
 ZZZY=              0.0003 XXYY=            -22.1827 XXZZ=            -23.4684 YYZZ=             -8.9588
 XXYZ=              0.0003 YYXZ=              0.0013 ZZXY=              0.3269
 N-N= 7.125326549323D+01 E-N=-5.403585488833D+02  KE= 1.683481728107D+02
  Exact polarizability:  27.645   0.882  21.053   0.000   0.000   9.598
 Approx polarizability:  34.605   3.495  23.347  -0.001   0.000  11.325
 Calling FoFJK, ICntrl=    100127 FMM=F ISym2X=0 I1Cent= 0 IOpClX= 0 NMat=1 NMatS=1 NMatT=0.
 FoFJK:  IHMeth= 1 ICntrl=100127 DoSepK=T KAlg= 1 I1Cent= 0 FoldK=F
 Full mass-weighted force constant matrix:
 Low frequencies ---  -28.2583   -0.0012   -0.0009   -0.0007    6.0896   12.3726
 Low frequencies ---  142.3538  569.7445  649.4057
 Diagonal vibrational polarizability:
        5.2804419       1.6363340     368.4686990
 Diagonal vibrational hyperpolarizability:
       16.7312960      -5.4194790       0.9769497
 Harmonic frequencies (cm**-1), IR intensities (KM/Mole), Raman scattering
 activities (A**4/AMU), depolarization ratios for plane and unpolarized
 incident light, reduced masses (AMU), force constants (mDyne/A),
 and normal coordinates:
                     1                      2                      3
                     A                      A                      A
 Frequencies --   142.3528               569.7445               649.4052
 Red. masses --     1.2247                 2.4183                 1.2024
 Frc consts  --     0.0146                 0.4625                 0.2988
 IR Inten    --   276.3819                12.3963                22.4229
 Raman Activ --     0.5122                 1.4180                 1.4522
 Depolar (P) --     0.7500                 0.6782                 0.7500
 Depolar (U) --     0.8571                 0.8082                 0.8571
  Atom  AN      X      Y      Z        X      Y      Z        X      Y      Z
     1   6     0.00   0.00  -0.01    -0.01   0.20   0.00     0.00   0.00  -0.10
     2   7     0.00   0.00   0.13    -0.15  -0.02   0.00     0.00   0.00   0.05
     3   8     0.00   0.00  -0.01     0.18  -0.11   0.00     0.00   0.00   0.06
     4   1     0.00   0.00  -0.53    -0.76  -0.08   0.00     0.00   0.00  -0.77
     5   1     0.00   0.00  -0.84     0.16  -0.48   0.00     0.00   0.00   0.59
     6   1     0.00   0.00   0.01    -0.14   0.19   0.00     0.00   0.00  -0.22
                     4                      5                      6
                     A                      A                      A
 Frequencies --  1062.4131              1073.8026              1299.1761
 Red. masses --     1.5537                 1.7384                 2.7085
 Frc consts  --     1.0332                 1.1810                 2.6935
 IR Inten    --     0.0091                 2.6458               100.4324
 Raman Activ --     3.1097                 5.4090                 3.8759
 Depolar (P) --     0.7500                 0.4939                 0.3376
 Depolar (U) --     0.8571                 0.6612                 0.5047
  Atom  AN      X      Y      Z        X      Y      Z        X      Y      Z
     1   6     0.00   0.00   0.21    -0.04   0.00   0.00    -0.18   0.25   0.00
     2   7     0.00   0.00  -0.04     0.19   0.06   0.00     0.12  -0.18   0.00
     3   8     0.00   0.00  -0.05    -0.12  -0.01   0.00     0.00  -0.04   0.00
     4   1     0.00   0.00  -0.16    -0.44  -0.01   0.00     0.79  -0.12   0.00
     5   1     0.00   0.00  -0.01     0.60  -0.54   0.00     0.00   0.02   0.00
     6   1     0.00   0.00  -0.96    -0.32  -0.01   0.00    -0.38   0.26   0.00
                     7                      8                      9
                     A                      A                      A
 Frequencies --  1448.8385              1647.8569              1873.7413
 Red. masses --     1.2179                 1.2546                 7.7175
 Frc consts  --     1.5062                 2.0072                15.9642
 IR Inten    --     4.6163                79.6484               379.0698
 Raman Activ --     7.9555                 5.1890                 6.9398
 Depolar (P) --     0.4494                 0.6604                 0.4019
 Depolar (U) --     0.6201                 0.7954                 0.5733
  Atom  AN      X      Y      Z        X      Y      Z        X      Y      Z
     1   6     0.04  -0.07   0.00     0.00   0.05   0.00     0.58   0.25   0.00
     2   7    -0.01  -0.03   0.00     0.11  -0.06   0.00    -0.11  -0.01   0.00
     3   8     0.06   0.07   0.00    -0.03  -0.03   0.00    -0.32  -0.20   0.00
     4   1    -0.06  -0.03   0.00    -0.64  -0.13   0.00     0.38   0.05   0.00
     5   1    -0.12   0.12   0.00    -0.37   0.64   0.00    -0.09  -0.05   0.00
     6   1    -0.97  -0.07   0.00     0.06   0.07   0.00    -0.47   0.26   0.00
                    10                     11                     12
                     A                      A                      A
 Frequencies --  3011.6948              3625.2708              3754.7239
 Red. masses --     1.0873                 1.0456                 1.1056
 Frc consts  --     5.8105                 8.0966                 9.1834
 IR Inten    --   101.2815                42.0003                44.6046
 Raman Activ --   106.3370                97.3610                51.3129
 Depolar (P) --     0.3030                 0.1304                 0.7237
 Depolar (U) --     0.4651                 0.2307                 0.8397
  Atom  AN      X      Y      Z        X      Y      Z        X      Y      Z
     1   6     0.00   0.08   0.00     0.00   0.00   0.00     0.00   0.00   0.00
     2   7     0.00   0.00   0.00     0.05  -0.03   0.00     0.04   0.08   0.00
     3   8     0.00   0.00   0.00     0.00   0.00   0.00     0.00   0.00   0.00
     4   1     0.00   0.01   0.00    -0.07   0.76   0.00     0.07  -0.63   0.00
     5   1     0.00   0.02   0.00    -0.52  -0.37   0.00    -0.63  -0.44   0.00
     6   1     0.00  -1.00   0.00     0.00   0.00   0.00     0.00  -0.01   0.00

 -------------------
 - Thermochemistry -
 -------------------
 Temperature   298.150 Kelvin.  Pressure   1.00000 Atm.
 Atom     1 has atomic number  6 and mass  12.00000
 Atom     2 has atomic number  7 and mass  14.00307
 Atom     3 has atomic number  8 and mass  15.99491
 Atom     4 has atomic number  1 and mass   1.00783
 Atom     5 has atomic number  1 and mass   1.00783
 Atom     6 has atomic number  1 and mass   1.00783
 Molecular mass:    45.02146 amu.
 Principal axes and moments of inertia in atomic units:
                           1         2         3
     Eigenvalues --    24.50590 158.68639 183.19229
           X            0.99982  -0.01921   0.00003
           Y            0.01921   0.99982   0.00008
           Z           -0.00003  -0.00008   1.00000
 This molecule is an asymmetric top.
 Rotational symmetry number  1.
 Rotational temperatures (Kelvin)      3.53441     0.54582     0.47280
 Rotational constants (GHZ):          73.64516    11.37301     9.85162
 Zero-point vibrational energy     120577.7 (Joules/Mol)
                                   28.81877 (Kcal/Mol)
 Warning -- explicit consideration of   2 degrees of freedom as
           vibrations may cause significant error
 Vibrational temperatures:    204.81   819.73   934.35  1528.57  1544.96
          (Kelvin)           1869.22  2084.55  2370.90  2695.89  4333.15
                             5215.95  5402.20
 
 Zero-point correction=                           0.045926 (Hartree/Particle)
 Thermal correction to Energy=                    0.049805
 Thermal correction to Enthalpy=                  0.050749
 Thermal correction to Gibbs Free Energy=         0.021113
 Sum of electronic and zero-point Energies=           -169.769194
 Sum of electronic and thermal Energies=              -169.765315
 Sum of electronic and thermal Enthalpies=            -169.764370
 Sum of electronic and thermal Free Energies=         -169.794006
 
                     E (Thermal)             CV                S
                      KCal/Mol        Cal/Mol-Kelvin    Cal/Mol-Kelvin
 Total                   31.253             10.817             62.374
 Electronic               0.000              0.000              0.000
 Translational            0.889              2.981             37.339
 Rotational               0.889              2.981             21.193
 Vibrational             29.475              4.855              3.841
 Vibration     1          0.616              1.911              2.772
 Vibration     2          0.926              1.097              0.505
                       Q            Log10(Q)             Ln(Q)
 Total Bot       0.194427D-09         -9.711243        -22.360963
 Total V=0       0.258842D+12         11.413035         26.279483
 Vib (Bot)       0.171383D-20        -20.766033        -47.815557
 Vib (Bot)    1  0.142748D+01          0.154570          0.355911
 Vib (Bot)    2  0.270199D+00         -0.568317         -1.308597
 Vib (V=0)       0.228163D+01          0.358245          0.824889
 Vib (V=0)    1  0.201251D+01          0.303739          0.699385
 Vib (V=0)    2  0.106834D+01          0.028708          0.066104
 Electronic      0.100000D+01          0.000000          0.000000
 Translational   0.118737D+08          7.074585         16.289833
 Rotational      0.955444D+04          3.980205          9.164761
 ***** Axes restored to original set *****
 -------------------------------------------------------------------
 Center     Atomic                   Forces (Hartrees/Bohr)
 Number     Number              X              Y              Z
 -------------------------------------------------------------------
      1        6          -0.000236516    0.000049439    0.000055222
      2        7          -0.000057340   -0.000020960   -0.000011659
      3        8           0.000244988   -0.000068047   -0.000021513
      4        1           0.000025396   -0.000154204   -0.000000365
      5        1          -0.000027201    0.000026508   -0.000003219
      6        1           0.000050673    0.000167265   -0.000018466
 -------------------------------------------------------------------
 Cartesian Forces:  Max     0.000244988 RMS     0.000101973

 GradGradGradGradGradGradGradGradGradGradGradGradGradGradGradGradGradGrad
 Berny optimization.
 Internal  Forces:  Max     0.000248884 RMS     0.000111667
 Search for a local minimum.
 Step number   1 out of a maximum of    2
 All quantities printed in internal units (Hartrees-Bohrs-Radians)
 Second derivative matrix not updated -- analytic derivatives used.
 The second derivative matrix:
                          R1        R2        R3        R4        R5
           R1           0.48192
           R2           0.08194   0.88554
           R3           0.01634   0.03302   0.32181
           R4           0.00790  -0.00125  -0.00025   0.48279
           R5           0.00378  -0.00087   0.00054  -0.00171   0.48825
           A1           0.01991   0.03117  -0.01498  -0.00761   0.00709
           A2           0.01062  -0.04205   0.01457   0.00687  -0.00391
           A3          -0.03053   0.01088   0.00041   0.00073  -0.00318
           A4           0.00204   0.00007   0.00223   0.00738  -0.00850
           A5           0.00967   0.00303   0.00025  -0.01003   0.00301
           A6          -0.01171  -0.00310  -0.00248   0.00265   0.00549
           D1           0.00001  -0.00001   0.00000   0.00000   0.00000
           D2          -0.00002  -0.00001   0.00000   0.00000   0.00000
           D3           0.00002   0.00001   0.00000   0.00000   0.00000
           D4          -0.00001   0.00001   0.00000   0.00000   0.00000
                          A1        A2        A3        A4        A5
           A1           0.17102
           A2          -0.08489   0.12197
           A3          -0.08612  -0.03708   0.12320
           A4          -0.02414   0.01929   0.00484   0.07644
           A5           0.02176  -0.01526  -0.00650  -0.04086   0.07938
           A6           0.00238  -0.00403   0.00166  -0.03558  -0.03852
           D1          -0.00002   0.00000   0.00001   0.00000   0.00000
           D2          -0.00002  -0.00001   0.00001   0.00000   0.00000
           D3           0.00001   0.00001  -0.00001   0.00000   0.00000
           D4           0.00001   0.00001  -0.00001   0.00000   0.00000
                          A6        D1        D2        D3        D4
           A6           0.07409
           D1           0.00000   0.02835
           D2           0.00000   0.02887   0.03119
           D3           0.00000  -0.01659  -0.02173   0.02954
           D4           0.00000  -0.01607  -0.01941   0.02440   0.02106
     Eigenvalues ---    0.00084   0.01762   0.09167   0.10252   0.11242
     Eigenvalues ---    0.15662   0.25503   0.32691   0.46776   0.48743
     Eigenvalues ---    0.49010   0.907621000.000001000.000001000.00000
 Angle between quadratic step and forces=  36.04 degrees.
 Linear search not attempted -- first point.
 Iteration  1 RMS(Cart)=  0.00047208 RMS(Int)=  0.00000018
 Iteration  2 RMS(Cart)=  0.00000016 RMS(Int)=  0.00000004
 Variable       Old X    -DE/DX   Delta X   Delta X   Delta X     New X
                                 (Linear)    (Quad)   (Total)
    R1        2.56472   0.00001   0.00000   0.00012   0.00012   2.56484
    R2        2.28883  -0.00017   0.00000  -0.00020  -0.00020   2.28863
    R3        2.09054   0.00017   0.00000   0.00050   0.00050   2.09104
    R4        1.90785   0.00016   0.00000   0.00030   0.00030   1.90815
    R5        1.90357  -0.00001   0.00000   0.00000   0.00000   1.90357
    A1        2.17945  -0.00025   0.00000  -0.00089  -0.00089   2.17856
    A2        1.95930   0.00008   0.00000   0.00006   0.00006   1.95936
    A3        2.14444   0.00017   0.00000   0.00083   0.00083   2.14527
    A4        2.07573   0.00004   0.00000   0.00005   0.00005   2.07577
    A5        2.12707  -0.00005   0.00000  -0.00021  -0.00021   2.12686
    A6        2.08039   0.00002   0.00000   0.00016   0.00016   2.08055
    D1       -0.00011  -0.00002   0.00000   0.00011   0.00011  -0.00001
    D2       -3.14096  -0.00002   0.00000  -0.00063  -0.00063  -3.14159
    D3        3.14112   0.00002   0.00000   0.00047   0.00047   3.14159
    D4        0.00027   0.00002   0.00000  -0.00026  -0.00026   0.00001
         Item               Value     Threshold  Converged?
 Maximum Force            0.000249     0.000450     YES
 RMS     Force            0.000112     0.000300     YES
 Maximum Displacement     0.000903     0.001800     YES
 RMS     Displacement     0.000472     0.001200     YES
 Predicted change in Energy=-2.847667D-07
 Optimization completed.
    -- Stationary point found.
                           ----------------------------
                           !   Optimized Parameters   !
                           ! (Angstroms and Degrees)  !
 --------------------------                            --------------------------
 ! Name  Definition              Value          Derivative Info.                !
 --------------------------------------------------------------------------------
 ! R1    R(1,2)                  1.3572         -DE/DX =    0.0                 !
 ! R2    R(1,3)                  1.2112         -DE/DX =   -0.0002              !
 ! R3    R(1,6)                  1.1063         -DE/DX =    0.0002              !
 ! R4    R(2,4)                  1.0096         -DE/DX =    0.0002              !
 ! R5    R(2,5)                  1.0073         -DE/DX =    0.0                 !
 ! A1    A(2,1,3)              124.8735         -DE/DX =   -0.0002              !
 ! A2    A(2,1,6)              112.2593         -DE/DX =    0.0001              !
 ! A3    A(3,1,6)              122.8671         -DE/DX =    0.0002              !
 ! A4    A(1,2,4)              118.9303         -DE/DX =    0.0                 !
 ! A5    A(1,2,5)              121.872          -DE/DX =   -0.0001              !
 ! A6    A(4,2,5)              119.1976         -DE/DX =    0.0                 !
 ! D1    D(3,1,2,4)             -0.0064         -DE/DX =    0.0                 !
 ! D2    D(3,1,2,5)           -179.9636         -DE/DX =    0.0                 !
 ! D3    D(6,1,2,4)            179.9728         -DE/DX =    0.0                 !
 ! D4    D(6,1,2,5)              0.0155         -DE/DX =    0.0                 !
 --------------------------------------------------------------------------------
 GradGradGradGradGradGradGradGradGradGradGradGradGradGradGradGradGradGrad

 1\1\GINC-CLODOMIRA\Freq\RCAM-B3LYP\6-31G(d)\C1H3N1O1\DIEGOA\21-Oct-201
 9\0\\#N Geom=AllCheck Guess=TCheck SCRF=Check GenChk RCAM-B3LYP/6-31G(
 d) Freq\\Title\\0,1\C,-0.153588,0.389845,-0.000116\N,1.087813,-0.15869
 ,-0.000092\O,-1.188645,-0.239167,0.000052\H,1.177406,-1.1643,0.000175\
 H,1.920074,0.408803,0.000305\H,-0.12309,1.495692,0.000063\\Version=EM6
 4L-G09RevA.01\State=1-A\HF=-169.8151192\RMSD=1.639e-09\RMSF=1.020e-04\
 ZeroPoint=0.0459256\Thermal=0.0498045\Dipole=1.4898322,0.3066931,0.000
 3455\DipoleDeriv=1.9122864,-0.0236735,-0.000037,-0.0560814,0.9644637,0
 .0000228,-0.0000801,-0.0000221,0.3457129,-1.0956807,0.2001252,0.000167
 2,0.4836156,-0.3748054,-0.0000316,0.0003604,-0.000031,-0.7145842,-1.17
 89524,-0.1184023,-0.0000287,-0.3880686,-0.6626009,0.0000003,0.0000876,
 0.0000593,-0.4163866,0.1544737,-0.0273309,-0.0000324,-0.0167495,0.1772
 883,0.0000321,-0.0001336,0.0000857,0.3610709,0.1885248,0.0099,-0.00005
 31,-0.0067917,0.1455708,-0.0000218,-0.0002209,-0.0000183,0.3675575,0.0
 193482,-0.0406186,-0.000016,-0.0159244,-0.2499164,-0.0000019,-0.000013
 4,-0.0000735,0.0566294\Polar=27.6509546,0.8606519,21.0470096,-0.000145
 8,0.0000638,9.59809\PolarDeriv=3.541801,1.7926584,-1.7646254,-0.001503
 5,-0.0002634,0.288696,4.0281796,1.6168871,-7.5860949,-0.0000809,-0.001
 0158,0.4349321,-0.0016419,0.0006294,-0.0004821,-0.0442192,0.5404623,-0
 .0022796,-1.3011843,-2.6305241,-1.5463513,-0.0025791,-0.0004368,0.0972
 938,-2.3654183,-2.1278558,4.6726031,-0.0005754,-0.0021936,-0.3165288,-
 0.002763,-0.0009672,-0.0024956,2.6165116,-0.5984219,-0.0017603,-11.097
 2825,-1.5669057,1.3136701,0.0014031,0.0004151,-0.3123124,-3.5119313,-3
 .8674331,-1.7762468,0.0002942,0.0004927,-0.62866,0.0008362,-0.0001476,
 -0.0002005,-3.7058021,-1.452413,0.0013118,1.4057188,-1.1027962,-0.0320
 786,0.0005452,0.0000031,-0.0477635,-1.8707975,2.3927085,-7.5695156,-0.
 0005434,0.000993,0.0583293,0.0007693,-0.0003089,0.0014601,0.2025552,-1
 .5036933,0.0007125,7.424739,1.7189327,1.2117415,0.0017681,0.0002369,-0
 .0217718,3.1550252,2.4672038,1.9440375,0.0008829,0.0008856,-0.0670717,
 0.0024397,0.0008799,0.0008445,1.0627281,0.7852614,0.0011283,0.026208,1
 .788635,0.8176437,0.0003662,0.000045,-0.0041421,0.5649423,-0.4815105,1
 0.3152167,0.0000225,0.0008382,0.5189992,0.0003597,-0.0000855,0.0008737
 ,-0.1317737,2.2288045,0.0008872\HyperPolar=17.2983058,29.1125275,24.66
 98426,26.9786218,0.012562,0.0011811,0.0138002,2.6767496,0.6822338,-0.0
 053852\PG=C01 [X(C1H3N1O1)]\NImag=0\\0.96756772,0.17915942,0.80767669,
 -0.00004977,-0.00000862,0.19414629,-0.32240624,0.10874673,0.00000422,0
 .84243684,0.09209881,-0.21236741,-0.00000927,0.04468071,0.85767941,-0.
 00004337,0.00000903,-0.04561644,0.00021549,-0.00003830,0.01463758,-0.5
 7602647,-0.30520310,0.00006368,-0.09538724,-0.02092628,0.00001537,0.67
 853742,-0.30016861,-0.31810585,0.00003781,-0.00539921,0.04252044,0.000
 00664,0.34940580,0.29614064,0.00007315,0.00004775,-0.07588247,0.000004
 13,0.00000284,0.02010711,-0.00007960,-0.00004700,0.03335379,0.00959332
 ,0.03906371,-0.00000966,-0.08142559,0.03300306,-0.00003161,0.00237014,
 -0.00687666,0.00000273,0.06458751,0.00307682,-0.01378657,0.00000346,0.
 03085485,-0.46043569,0.00010973,-0.00276260,0.00184448,-0.00000160,-0.
 03973716,0.47903329,0.00000969,-0.00000398,0.00142076,-0.00003737,0.00
 014253,-0.00505054,-0.00000537,-0.00000212,-0.00602156,0.00002483,-0.0
 0011801,0.00879278,-0.01479493,-0.02591656,-0.00000771,-0.34359806,-0.
 18517249,-0.00015541,-0.00471039,0.00564180,-0.00000164,0.01009118,0.0
 0608389,0.00000642,0.35225535,0.01143618,0.01794144,0.00000891,-0.1851
 6484,-0.20895448,-0.00008375,0.00408776,-0.00068073,-0.00000238,-0.028
 03216,-0.00705044,-0.00001673,0.19813314,0.19961240,0.00001287,-0.0000
 0134,-0.01047188,-0.00018504,-0.00009818,0.00438023,0.00000174,-0.0000
 0135,0.00809524,0.00001416,0.00000525,-0.00572869,0.00015590,0.0000941
 5,0.00511735,-0.06393341,0.00414980,-0.00000076,0.00038030,0.03631620,
 -0.00000047,-0.00478346,-0.04260312,0.00000123,-0.00521656,0.00248420,
 0.00000181,0.00075684,-0.00046008,0.00000037,0.07279629,0.01439737,-0.
 28135830,-0.00003230,0.00628176,-0.01844226,-0.00000335,-0.02460157,-0
 .02171899,0.00000040,0.00257920,0.00039493,-0.00000169,0.00123023,-0.0
 0086819,0.00000147,0.00011300,0.32199280,-0.00000257,-0.00004283,-0.06
 359626,-0.00000143,0.00000038,0.01154205,0.00000418,0.00000602,0.02034
 788,-0.00000044,0.00000117,0.00658725,0.00000244,-0.00000019,-0.001392
 25,-0.00000218,0.00003546,0.02651133\\0.00023652,-0.00004944,-0.000055
 22,0.00005734,0.00002096,0.00001166,-0.00024499,0.00006805,0.00002151,
 -0.00002540,0.00015420,0.00000036,0.00002720,-0.00002651,0.00000322,-0
 .00005067,-0.00016727,0.00001847\\\@


 THOSE WHO ARE UNABLE TO LEARN FROM PAST MEETINGS
 ARE CONDEMNED TO REPEAT THEM.
 Job cpu time:  0 days  0 hours  0 minutes 36.1 seconds.
 File lengths (MBytes):  RWF=      6 Int=      0 D2E=      0 Chk=      1 Scr=      1
 Normal termination of Gaussian 09 at Mon Oct 21 19:19:52 2019.
