 Entering Gaussian System, Link 0=g09
 Input=td1.com
 Output=td1.log
 Initial command:
 /home/diegoa/progs/g09/l1.exe /home/diegoa/g09scratch/Gau-3141.inp -scrdir=/home/diegoa/g09scratch/
 Default is to use a total of   4 processors:
                                4 via shared-memory
                                1 via Linda
 Entering Link 1 = /home/diegoa/progs/g09/l1.exe PID=      3152.
  
 Copyright (c) 1988,1990,1992,1993,1995,1998,2003,2009, Gaussian, Inc.
                  All Rights Reserved.
  
 This is part of the Gaussian(R) 09 program.  It is based on
 the Gaussian(R) 03 system (copyright 2003, Gaussian, Inc.),
 the Gaussian(R) 98 system (copyright 1998, Gaussian, Inc.),
 the Gaussian(R) 94 system (copyright 1995, Gaussian, Inc.),
 the Gaussian 92(TM) system (copyright 1992, Gaussian, Inc.),
 the Gaussian 90(TM) system (copyright 1990, Gaussian, Inc.),
 the Gaussian 88(TM) system (copyright 1988, Gaussian, Inc.),
 the Gaussian 86(TM) system (copyright 1986, Carnegie Mellon
 University), and the Gaussian 82(TM) system (copyright 1983,
 Carnegie Mellon University). Gaussian is a federally registered
 trademark of Gaussian, Inc.
  
 This software contains proprietary and confidential information,
 including trade secrets, belonging to Gaussian, Inc.
  
 This software is provided under written license and may be
 used, copied, transmitted, or stored only in accord with that
 written license.
  
 The following legend is applicable only to US Government
 contracts under FAR:
  
                    RESTRICTED RIGHTS LEGEND
  
 Use, reproduction and disclosure by the US Government is
 subject to restrictions as set forth in subparagraphs (a)
 and (c) of the Commercial Computer Software - Restricted
 Rights clause in FAR 52.227-19.
  
 Gaussian, Inc.
 340 Quinnipiac St., Bldg. 40, Wallingford CT 06492
  
  
 ---------------------------------------------------------------
 Warning -- This program may not be used in any manner that
 competes with the business of Gaussian, Inc. or will provide
 assistance to any competitor of Gaussian, Inc.  The licensee
 of this program is prohibited from giving any competitor of
 Gaussian, Inc. access to this program.  By using this program,
 the user acknowledges that Gaussian, Inc. is engaged in the
 business of creating and licensing software in the field of
 computational chemistry and represents and warrants to the
 licensee that it is not a competitor of Gaussian, Inc. and that
 it will not use this program in any manner prohibited above.
 ---------------------------------------------------------------
  

 Cite this work as:
 Gaussian 09, Revision A.01,
 M. J. Frisch, G. W. Trucks, H. B. Schlegel, G. E. Scuseria, 
 M. A. Robb, J. R. Cheeseman, G. Scalmani, V. Barone, B. Mennucci, 
 G. A. Petersson, H. Nakatsuji, M. Caricato, X. Li, H. P. Hratchian, 
 A. F. Izmaylov, J. Bloino, G. Zheng, J. L. Sonnenberg, M. Hada, 
 M. Ehara, K. Toyota, R. Fukuda, J. Hasegawa, M. Ishida, T. Nakajima, 
 Y. Honda, O. Kitao, H. Nakai, T. Vreven, J. A. Montgomery, Jr., 
 J. E. Peralta, F. Ogliaro, M. Bearpark, J. J. Heyd, E. Brothers, 
 K. N. Kudin, V. N. Staroverov, R. Kobayashi, J. Normand, 
 K. Raghavachari, A. Rendell, J. C. Burant, S. S. Iyengar, J. Tomasi, 
 M. Cossi, N. Rega, J. M. Millam, M. Klene, J. E. Knox, J. B. Cross, 
 V. Bakken, C. Adamo, J. Jaramillo, R. Gomperts, R. E. Stratmann, 
 O. Yazyev, A. J. Austin, R. Cammi, C. Pomelli, J. W. Ochterski, 
 R. L. Martin, K. Morokuma, V. G. Zakrzewski, G. A. Voth, 
 P. Salvador, J. J. Dannenberg, S. Dapprich, A. D. Daniels, 
 O. Farkas, J. B. Foresman, J. V. Ortiz, J. Cioslowski, 
 and D. J. Fox, Gaussian, Inc., Wallingford CT, 2009.
 
 ******************************************
 Gaussian 09:  EM64L-G09RevA.01  8-May-2009
                30-Oct-2019 
 ******************************************
 %chk=td1.chk
 %NProcShared=4
 Will use up to    4 processors via shared memory.
 Default route:  MP2=Direct MaxDisk=1000GB DenFit
 ------------------------------------------------------
 # cam-b3lyp/6-31G** force nosymm td(root=1,nstates=10)
 ------------------------------------------------------
 1/10=7,30=1,38=1/1,3;
 2/12=2,15=1,17=6,18=5,40=1/2;
 3/5=1,6=6,7=101,11=2,16=1,25=1,30=1,71=1,74=-40,82=47/1,2,8,3;
 4//1;
 5/5=2,38=5/2;
 8/6=1,10=2,107=1,108=10/1;
 9/8=1,15=2,41=10,42=1/14;
 10/5=4,31=1/2;
 6/7=2,8=2,9=2,10=2,18=1/1;
 7/12=6,13=5,14=1,29=1,30=1/1,2,3,16;
 1/10=7,30=1/3;
 99//99;
 -----
 Title
 -----
 Symbolic Z-matrix:
 Charge =  0 Multiplicity = 1
 6                    -0.16074   0.38769   0.00008 
 7                     1.08099  -0.15823  -0.00004 
 8                    -1.1934   -0.24531  -0.00007 
 1                     1.16871  -1.16252   0.0001 
 1                     1.90922   0.41219   0.00022 
 1                    -0.13328   1.49431  -0.00004 
 

 GradGradGradGradGradGradGradGradGradGradGradGradGradGradGradGradGradGrad
 Berny optimization.
 Initialization pass.
 Trust Radius=3.00D-01 FncErr=1.00D-07 GrdErr=1.00D-07
 Number of steps in this run=   2 maximum allowed number of steps=   2.
 GradGradGradGradGradGradGradGradGradGradGradGradGradGradGradGradGradGrad

                          Input orientation:                          
 ---------------------------------------------------------------------
 Center     Atomic      Atomic             Coordinates (Angstroms)
 Number     Number       Type             X           Y           Z
 ---------------------------------------------------------------------
      1          6           0       -0.160735    0.387687    0.000083
      2          7           0        1.080995   -0.158228   -0.000037
      3          8           0       -1.193398   -0.245313   -0.000066
      4          1           0        1.168705   -1.162517    0.000104
      5          1           0        1.909215    0.412186    0.000224
      6          1           0       -0.133284    1.494310   -0.000044
 ---------------------------------------------------------------------
                    Distance matrix (angstroms):
                    1          2          3          4          5
     1  C    0.000000
     2  N    1.356435   0.000000
     3  O    1.211232   2.276060   0.000000
     4  H    2.042191   1.008112   2.533929   0.000000
     5  H    2.070095   1.005644   3.171516   1.740128   0.000000
     6  H    1.106963   2.050696   2.037187   2.958700   2.311449
                    6
     6  H    0.000000
 Symmetry turned off by external request.
 Stoichiometry    CH3NO
 Framework group  C1[X(CH3NO)]
 Deg. of freedom    12
 Full point group                 C1      NOp   1
 Rotational constants (GHZ):     73.5128806     11.3961088      9.8665736
 Standard basis: 6-31G(d,p) (6D, 7F)
 Integral buffers will be    131072 words long.
 Raffenetti 2 integral format.
 Two-electron integral symmetry is turned off.
    60 basis functions,   105 primitive gaussians,    60 cartesian basis functions
    12 alpha electrons       12 beta electrons
       nuclear repulsion energy        71.2923053162 Hartrees.
 NAtoms=    6 NActive=    6 NUniq=    6 SFac= 7.50D-01 NAtFMM=   80 NAOKFM=F Big=F
 Standard density basis: Auto (5D, 7F)
   276 Density fitting functions
 One-electron integrals computed using PRISM.
 NBasis=    60 RedAO= T  NBF=    60
 NBsUse=    60 1.00D-06 NBFU=    60
 Harris functional with IExCor=20419 diagonalized for initial guess.
 ExpMin= 1.61D-01 ExpMax= 5.48D+03 ExpMxC= 8.25D+02 IAcc=1 IRadAn=         1 AccDes= 0.00D+00
 HarFok:  IExCor=20419 AccDes= 0.00D+00 IRadAn=         1 IDoV= 1
 ScaDFX=  1.000000  1.000000  1.000000  1.000000
 FoFCou: FMM=F IPFlag=           0 FMFlag=      100000 FMFlg1=           0
         NFxFlg=           0 DoJE=T BraDBF=F KetDBF=T FulRan=T
         Omega=  0.000000  0.000000  1.000000  0.000000  0.000000 ICntrl=     500 IOpCl=  0
         NMat0=    1 NMatS0=    1 NMatT0=    0 NMatD0=    1 NMtDS0=    0 NMtDT0=    0
         I1Cent=           4 NGrid=           0.
 Symmetry not used in FoFCou.
 Requested convergence on RMS density matrix=1.00D-08 within 128 cycles.
 Requested convergence on MAX density matrix=1.00D-06.
 Requested convergence on             energy=1.00D-06.
 No special actions if energy rises.
 Integral accuracy reduced to 1.0D-05 until final iterations.
 FoFJK:  IHMeth= 1 ICntrl=     0 DoSepK=T KAlg= 1 I1Cent= 0 FoldK=F
 FoFJK:  IHMeth= 1 ICntrl=     0 DoSepK=T KAlg= 1 I1Cent= 0 FoldK=F
 FoFJK:  IHMeth= 1 ICntrl=     0 DoSepK=T KAlg= 1 I1Cent= 0 FoldK=F
 FoFJK:  IHMeth= 1 ICntrl=     0 DoSepK=T KAlg= 1 I1Cent= 0 FoldK=F
 FoFJK:  IHMeth= 1 ICntrl=     0 DoSepK=T KAlg= 1 I1Cent= 0 FoldK=F
 FoFJK:  IHMeth= 1 ICntrl=     0 DoSepK=T KAlg= 1 I1Cent= 0 FoldK=F
 FoFJK:  IHMeth= 1 ICntrl=     0 DoSepK=T KAlg= 1 I1Cent= 0 FoldK=F
 Initial convergence to 1.0D-05 achieved.  Increase integral accuracy.
 FoFJK:  IHMeth= 1 ICntrl=     0 DoSepK=T KAlg= 1 I1Cent= 0 FoldK=F
 FoFJK:  IHMeth= 1 ICntrl=     0 DoSepK=T KAlg= 1 I1Cent= 0 FoldK=F
 FoFJK:  IHMeth= 1 ICntrl=     0 DoSepK=T KAlg= 1 I1Cent= 0 FoldK=F
 FoFJK:  IHMeth= 1 ICntrl=     0 DoSepK=T KAlg= 1 I1Cent= 0 FoldK=F
 FoFJK:  IHMeth= 1 ICntrl=     0 DoSepK=T KAlg= 1 I1Cent= 0 FoldK=F
 FoFJK:  IHMeth= 1 ICntrl=     0 DoSepK=T KAlg= 1 I1Cent= 0 FoldK=F
 FoFJK:  IHMeth= 1 ICntrl=     0 DoSepK=T KAlg= 1 I1Cent= 0 FoldK=F
 SCF Done:  E(RCAM-B3LYP) =  -169.823249812     A.U. after   14 cycles
             Convg  =    0.2248D-08             -V/T =  2.0087
 ExpMin= 1.61D-01 ExpMax= 5.48D+03 ExpMxC= 8.25D+02 IAcc=1 IRadAn=         1 AccDes= 0.00D+00
 HarFok:  IExCor=  205 AccDes= 0.00D+00 IRadAn=         1 IDoV=-2
 ScaDFX=  1.000000  1.000000  1.000000  1.000000
 Range of M.O.s used for correlation:     4    60
 NBasis=    60 NAE=    12 NBE=    12 NFC=     3 NFV=     0
 NROrb=     57 NOA=     9 NOB=     9 NVA=    48 NVB=    48
    40 initial guesses have been made.
 Convergence on wavefunction:    0.000001000000000
 Iteration     1 Dimension    40 NMult    40
 CISAX will form    40 AO SS matrices at one time.
 FoFJK:  IHMeth= 1 ICntrl=     0 DoSepK=T KAlg= 1 I1Cent= 0 FoldK=F
 FoFJK:  IHMeth= 1 ICntrl=     0 DoSepK=T KAlg= 1 I1Cent= 0 FoldK=F
 New state      3 was old state      4
 New state      4 was old state      6
 New state      6 was old state      3
 New state      7 was old state     10
 New state      9 was old state      7
 No map to state     10
 Iteration     2 Dimension    60 NMult    60
 FoFJK:  IHMeth= 1 ICntrl=     0 DoSepK=T KAlg= 1 I1Cent= 0 FoldK=F
 FoFJK:  IHMeth= 1 ICntrl=     0 DoSepK=T KAlg= 1 I1Cent= 0 FoldK=F
 Iteration     3 Dimension    80 NMult    80
 FoFJK:  IHMeth= 1 ICntrl=     0 DoSepK=T KAlg= 1 I1Cent= 0 FoldK=F
 FoFJK:  IHMeth= 1 ICntrl=     0 DoSepK=T KAlg= 1 I1Cent= 0 FoldK=F
 No map to state     10
 Iteration     4 Dimension   100 NMult   100
 FoFJK:  IHMeth= 1 ICntrl=     0 DoSepK=T KAlg= 1 I1Cent= 0 FoldK=F
 FoFJK:  IHMeth= 1 ICntrl=     0 DoSepK=T KAlg= 1 I1Cent= 0 FoldK=F
 Iteration     5 Dimension   120 NMult   120
 FoFJK:  IHMeth= 1 ICntrl=     0 DoSepK=T KAlg= 1 I1Cent= 0 FoldK=F
 FoFJK:  IHMeth= 1 ICntrl=     0 DoSepK=T KAlg= 1 I1Cent= 0 FoldK=F
 Iteration     6 Dimension   140 NMult   140
 FoFJK:  IHMeth= 1 ICntrl=     0 DoSepK=T KAlg= 1 I1Cent= 0 FoldK=F
 FoFJK:  IHMeth= 1 ICntrl=     0 DoSepK=T KAlg= 1 I1Cent= 0 FoldK=F
 Iteration     7 Dimension   152 NMult   152
 FoFJK:  IHMeth= 1 ICntrl=     0 DoSepK=T KAlg= 1 I1Cent= 0 FoldK=F
 FoFJK:  IHMeth= 1 ICntrl=     0 DoSepK=T KAlg= 1 I1Cent= 0 FoldK=F
 Iteration     8 Dimension   154 NMult   154
 FoFJK:  IHMeth= 1 ICntrl=     0 DoSepK=T KAlg= 1 I1Cent= 0 FoldK=F
 FoFJK:  IHMeth= 1 ICntrl=     0 DoSepK=T KAlg= 1 I1Cent= 0 FoldK=F
 Iteration     9 Dimension   156 NMult   156
 FoFJK:  IHMeth= 1 ICntrl=     0 DoSepK=T KAlg= 1 I1Cent= 0 FoldK=F
 FoFJK:  IHMeth= 1 ICntrl=     0 DoSepK=T KAlg= 1 I1Cent= 0 FoldK=F
 ***********************************************************************
 Excited states from <AA,BB:AA,BB> singles matrix:
 ***********************************************************************
 
 Ground to excited state transition electric dipole moments (Au):
       state          X           Y           Z        Dip. S.      Osc.
         1         0.0000     -0.0001      0.0884      0.0078      0.0011
         2         0.6801     -0.0664      0.0000      0.4669      0.0922
         3        -0.0002      0.0000      0.1215      0.0148      0.0030
         4         0.0013     -0.0005     -0.0351      0.0012      0.0003
         5        -1.0157      0.3167     -0.0001      1.1319      0.2592
         6        -0.4441     -0.6463      0.0000      0.6149      0.1453
         7        -0.0001      0.0001     -0.1076      0.0116      0.0029
         8        -0.0003     -0.0002      0.0041      0.0000      0.0000
         9         0.0942     -0.1544      0.0001      0.0327      0.0088
        10        -0.0088     -0.6080     -0.0002      0.3697      0.1063
 Ground to excited state transition velocity dipole moments (Au):
       state          X           Y           Z        Dip. S.      Osc.
         1         0.0000      0.0000     -0.0206      0.0004      0.0013
         2        -0.1975      0.0154      0.0000      0.0392      0.0883
         3         0.0001      0.0000     -0.0764      0.0058      0.0126
         4        -0.0004      0.0001      0.0211      0.0004      0.0009
         5         0.3229     -0.1029      0.0000      0.1148      0.2229
         6         0.1689      0.2183      0.0000      0.0762      0.1433
         7         0.0000      0.0000      0.0625      0.0039      0.0069
         8         0.0001      0.0001      0.0025      0.0000      0.0000
         9        -0.0380      0.0565      0.0000      0.0046      0.0076
        10        -0.0010      0.2380      0.0001      0.0566      0.0876
 Ground to excited state transition magnetic dipole moments (Au):
       state          X           Y           Z
         1        -0.9080     -0.4443     -0.0001
         2         0.0000      0.0001      0.3077
         3        -0.0040      0.3310     -0.0001
         4        -0.2059     -0.0223      0.0002
         5        -0.0002      0.0000     -0.2348
         6         0.0001      0.0000      0.1845
         7        -0.9209      1.2148     -0.0001
         8         0.0946     -0.0855      0.0001
         9         0.0000      0.0002      0.0718
        10        -0.0003      0.0000      0.0679
 <0|del|b> * <b|rxdel|0> + <0|del|b> * <b|delr+rdel|0>
 Rotatory Strengths (R) in cgs (10**-40 erg-esu-cm/Gauss)
       state          XX          YY          ZZ    R(velocity)
         1        -0.0116      0.0042     -0.0111     -0.0062
 Total R(velocity) tensor for State=          1
                 1             2             3 
      1  -0.115943D-01 -0.226854D-02 -0.116840D-05
      2   0.255866D-01  0.417195D-02  0.185044D-05
      3  -0.296256D+02 -0.150946D+02 -0.110989D-01
         2        -0.0043     -0.0017     -0.0022     -0.0027
 Total R(velocity) tensor for State=          2
                 1             2             3 
      1  -0.434612D-02  0.181410D-01  0.119423D+03
      2  -0.160204D-02 -0.166186D-02  0.305444D+02
      3   0.633478D+00  0.813940D+01 -0.218624D-02
         3         0.0165      0.0043     -0.0007      0.0067
 Total R(velocity) tensor for State=          3
                 1             2             3 
      1   0.164999D-01 -0.445900D-01  0.899105D-05
      2   0.639770D-02  0.430807D-02  0.444890D-05
      3  -0.137598D+01  0.436690D+01 -0.720889D-03
         4         0.0040      0.1443      0.0279      0.0587
 Total R(velocity) tensor for State=          4
                 1             2             3 
      1   0.398738D-02  0.499510D-02  0.465228D-04
      2   0.456863D-01  0.144336D+00  0.000000D+00
      3   0.163730D+01  0.621534D+00  0.278618D-01
         5        -0.0134     -0.1448     -0.0175     -0.0586
 Total R(velocity) tensor for State=          5
                 1             2             3 
      1  -0.134057D-01 -0.788907D-02  0.914444D+02
      2  -0.417852D-01 -0.144756D+00 -0.364381D+02
      3   0.462720D+01  0.145217D+02 -0.175075D-01
         6         0.0060      0.0183      0.0203      0.0149
 Total R(velocity) tensor for State=          6
                 1             2             3 
      1   0.599869D-02 -0.668562D-02 -0.474607D+02
      2  -0.302616D-01  0.183414D-01 -0.118063D+03
      3   0.207789D+01 -0.160830D+01  0.203096D-01
         7        -0.0317     -0.0346     -0.0363     -0.0342
 Total R(velocity) tensor for State=          7
                 1             2             3 
      1  -0.316966D-01 -0.488324D-01  0.191769D-05
      2  -0.123965D-01 -0.346460D-01 -0.345394D-05
      3   0.447083D+02 -0.553967D+02 -0.363078D-01
         8        -0.0098      0.0189      0.0032      0.0041
 Total R(velocity) tensor for State=          8
                 1             2             3 
      1  -0.976429D-02  0.196280D-01 -0.145988D-04
      2  -0.817289D-02  0.189021D-01 -0.781710D-04
      3  -0.636268D-01  0.590361D-02  0.315822D-02
         9         0.0181     -0.0015      0.0006      0.0057
 Total R(velocity) tensor for State=          9
                 1             2             3 
      1   0.181099D-01  0.139459D-02 -0.236680D+02
      2  -0.108692D-01 -0.151576D-02  0.127154D+02
      3   0.204580D+01  0.137581D+01  0.560485D-03
        10         0.0077      0.0159      0.0012      0.0083
 Total R(velocity) tensor for State=         10
                 1             2             3 
      1   0.771860D-02  0.617155D-01 -0.204974D+03
      2   0.108793D+00  0.159272D-01 -0.513402D+02
      3  -0.421216D+02 -0.184954D+00  0.123232D-02
 1/2[<0|r|b>*<b|rxdel|0> + (<0|rxdel|b>*<b|r|0>)*]
 Rotatory Strengths (R) in cgs (10**-40 erg-esu-cm/Gauss)
       state          XX          YY          ZZ     R(length)     R(au)
         1         0.0206     -0.0340      0.0034     -0.0033      0.0000
         2        -0.0035      0.0029      0.0032      0.0009      0.0000
         3        -0.0004     -0.0041      0.0089      0.0015      0.0000
         4         0.1918     -0.0072      0.0045      0.0630      0.0001
         5        -0.1750      0.0051     -0.0139     -0.0613     -0.0001
         6         0.0308      0.0158     -0.0047      0.0140      0.0000
         7        -0.0529     -0.0497     -0.0086     -0.0371     -0.0001
         8         0.0231     -0.0101     -0.0004      0.0042      0.0000
         9         0.0024      0.0199     -0.0035      0.0063      0.0000
        10        -0.0019      0.0180      0.0088      0.0083      0.0000
  1/2[<0|del|b>*<b|r|0> + (<0|r|b>*<b|del|0>)*] (Au)
       state          X           Y           Z        Dip. S.   Osc.(frdel)
         1         0.0000      0.0000     -0.0018      0.0018      0.0012
         2        -0.1343     -0.0010      0.0000      0.1353      0.0902
         3         0.0000      0.0000     -0.0093      0.0093      0.0062
         4         0.0000      0.0000     -0.0007      0.0007      0.0005
         5        -0.3280     -0.0326      0.0000      0.3605      0.2404
         6        -0.0750     -0.1411      0.0000      0.2161      0.1441
         7         0.0000      0.0000     -0.0067      0.0067      0.0045
         8         0.0000      0.0000      0.0000      0.0000      0.0000
         9        -0.0036     -0.0087      0.0000      0.0123      0.0082
        10         0.0000     -0.1447      0.0000      0.1447      0.0965
 Ground to excited state transition densities written to RWF  633

 Excitation energies and oscillator strengths:
 
 Excited state symmetry could not be determined.
 Excited State   1:      Singlet-?Sym    5.7633 eV  215.13 nm  f=0.0011  <S**2>=0.000
      12 -> 13         0.70631
 This state for optimization and/or second-order correction.
 Copying the excited state density for this state as the 1-particle RhoCI density.
 
 Excited state symmetry could not be determined.
 Excited State   2:      Singlet-?Sym    8.0575 eV  153.87 nm  f=0.0922  <S**2>=0.000
      11 -> 13         0.60894
      12 -> 14         0.34225
 
 Excited state symmetry could not be determined.
 Excited State   3:      Singlet-?Sym    8.4371 eV  146.95 nm  f=0.0030  <S**2>=0.000
      10 -> 14         0.10480
      11 -> 14         0.69765
 
 Excited state symmetry could not be determined.
 Excited State   4:      Singlet-?Sym    9.2883 eV  133.48 nm  f=0.0003  <S**2>=0.000
      11 -> 15         0.69261
 
 Excited state symmetry could not be determined.
 Excited State   5:      Singlet-?Sym    9.3488 eV  132.62 nm  f=0.2592  <S**2>=0.000
      11 -> 13        -0.30537
      12 -> 14         0.57875
      12 -> 15        -0.25081
 
 Excited state symmetry could not be determined.
 Excited State   6:      Singlet-?Sym    9.6427 eV  128.58 nm  f=0.1453  <S**2>=0.000
      10 -> 13        -0.10422
      11 -> 13        -0.13331
      12 -> 14         0.19616
      12 -> 15         0.64780
 
 Excited state symmetry could not be determined.
 Excited State   7:      Singlet-?Sym   10.3151 eV  120.20 nm  f=0.0029  <S**2>=0.000
       9 -> 13         0.70436
 
 Excited state symmetry could not be determined.
 Excited State   8:      Singlet-?Sym   10.9360 eV  113.37 nm  f=0.0000  <S**2>=0.000
      11 -> 15         0.11075
      11 -> 16         0.68594
 
 Excited state symmetry could not be determined.
 Excited State   9:      Singlet-?Sym   11.0106 eV  112.60 nm  f=0.0088  <S**2>=0.000
      10 -> 13        -0.14630
      12 -> 16         0.67511
 
 Excited state symmetry could not be determined.
 Excited State  10:      Singlet-?Sym   11.7312 eV  105.69 nm  f=0.1063  <S**2>=0.000
      10 -> 13         0.65283
      12 -> 16         0.16688
      12 -> 17         0.10060
 SavETr:  write IOETrn=   770 NScale= 10 NData=  16 NLR=1 LETran=     190.
 FoFJK:  IHMeth= 1 ICntrl=     0 DoSepK=T KAlg= 1 I1Cent= 0 FoldK=F
 FoFJK:  IHMeth= 1 ICntrl=     0 DoSepK=T KAlg= 1 I1Cent= 0 FoldK=F
          IDoAtm=111111
          Differentiating once with respect to electric field.
                with respect to dipole field.
          Differentiating once with respect to nuclear coordinates.
          There are     1 degrees of freedom in the 1st order CPHF.  IDoFFX=0.
 FoFJK:  IHMeth= 1 ICntrl=     0 DoSepK=T KAlg= 1 I1Cent= 0 FoldK=F
 LinEq1:  Iter=  0 NonCon=     1 RMS=4.58D-02 Max=6.75D-01
 AX will form     1 AO Fock derivatives at one time.
 FoFJK:  IHMeth= 1 ICntrl=     0 DoSepK=T KAlg= 1 I1Cent= 0 FoldK=F
 LinEq1:  Iter=  1 NonCon=     1 RMS=1.00D-02 Max=9.89D-02
 FoFJK:  IHMeth= 1 ICntrl=     0 DoSepK=T KAlg= 1 I1Cent= 0 FoldK=F
 LinEq1:  Iter=  2 NonCon=     1 RMS=5.13D-03 Max=6.00D-02
 FoFJK:  IHMeth= 1 ICntrl=     0 DoSepK=T KAlg= 1 I1Cent= 0 FoldK=F
 LinEq1:  Iter=  3 NonCon=     1 RMS=1.94D-03 Max=1.91D-02
 FoFJK:  IHMeth= 1 ICntrl=     0 DoSepK=T KAlg= 1 I1Cent= 0 FoldK=F
 LinEq1:  Iter=  4 NonCon=     1 RMS=7.76D-04 Max=7.91D-03
 FoFJK:  IHMeth= 1 ICntrl=     0 DoSepK=T KAlg= 1 I1Cent= 0 FoldK=F
 LinEq1:  Iter=  5 NonCon=     1 RMS=2.24D-04 Max=1.70D-03
 FoFJK:  IHMeth= 1 ICntrl=     0 DoSepK=T KAlg= 1 I1Cent= 0 FoldK=F
 LinEq1:  Iter=  6 NonCon=     1 RMS=4.67D-05 Max=3.61D-04
 FoFJK:  IHMeth= 1 ICntrl=     0 DoSepK=T KAlg= 1 I1Cent= 0 FoldK=F
 LinEq1:  Iter=  7 NonCon=     1 RMS=1.05D-05 Max=8.07D-05
 FoFJK:  IHMeth= 1 ICntrl=     0 DoSepK=T KAlg= 1 I1Cent= 0 FoldK=F
 LinEq1:  Iter=  8 NonCon=     1 RMS=1.78D-06 Max=1.33D-05
 FoFJK:  IHMeth= 1 ICntrl=     0 DoSepK=T KAlg= 1 I1Cent= 0 FoldK=F
 LinEq1:  Iter=  9 NonCon=     1 RMS=2.52D-07 Max=1.82D-06
 FoFJK:  IHMeth= 1 ICntrl=     0 DoSepK=T KAlg= 1 I1Cent= 0 FoldK=F
 LinEq1:  Iter= 10 NonCon=     1 RMS=3.13D-08 Max=2.44D-07
 FoFJK:  IHMeth= 1 ICntrl=     0 DoSepK=T KAlg= 1 I1Cent= 0 FoldK=F
 LinEq1:  Iter= 11 NonCon=     1 RMS=5.11D-09 Max=4.14D-08
 FoFJK:  IHMeth= 1 ICntrl=     0 DoSepK=T KAlg= 1 I1Cent= 0 FoldK=F
 LinEq1:  Iter= 12 NonCon=     1 RMS=6.97D-10 Max=7.63D-09
 FoFJK:  IHMeth= 1 ICntrl=     0 DoSepK=T KAlg= 1 I1Cent= 0 FoldK=F
 LinEq1:  Iter= 13 NonCon=     1 RMS=1.36D-10 Max=2.28D-09
 FoFJK:  IHMeth= 1 ICntrl=     0 DoSepK=T KAlg= 1 I1Cent= 0 FoldK=F
 LinEq1:  Iter= 14 NonCon=     0 RMS=3.61D-11 Max=3.97D-10
 Linear equations converged to 1.000D-10 1.000D-09 after    14 iterations.
 FoFJK:  IHMeth= 1 ICntrl=     0 DoSepK=T KAlg= 1 I1Cent= 0 FoldK=F
 End of Minotr Frequency-dependent properties file   721 does not exist.
 End of Minotr Frequency-dependent properties file   722 does not exist.

 **********************************************************************

            Population analysis using the SCF density.

 **********************************************************************

 Alpha  occ. eigenvalues --  -19.18764 -14.43544 -10.36384  -1.11401  -0.98855
 Alpha  occ. eigenvalues --   -0.69882  -0.62685  -0.54675  -0.47697  -0.47244
 Alpha  occ. eigenvalues --   -0.33376  -0.31813
 Alpha virt. eigenvalues --    0.08775   0.12556   0.16202   0.21866   0.32098
 Alpha virt. eigenvalues --    0.40553   0.59208   0.60235   0.70867   0.74076
 Alpha virt. eigenvalues --    0.76154   0.77706   0.89006   0.90557   0.91268
 Alpha virt. eigenvalues --    0.93120   1.07149   1.14102   1.27512   1.34802
 Alpha virt. eigenvalues --    1.39837   1.45294   1.56876   1.57868   1.83113
 Alpha virt. eigenvalues --    1.89603   1.91622   2.05034   2.08385   2.14773
 Alpha virt. eigenvalues --    2.19329   2.20773   2.34491   2.43843   2.56849
 Alpha virt. eigenvalues --    2.59258   2.69413   2.82658   2.83744   2.93606
 Alpha virt. eigenvalues --    3.07099   3.09251   3.32121   3.52846   3.72563
 Alpha virt. eigenvalues --    3.93855   4.03094   4.45558
          Condensed to atoms (all electrons):
              1          2          3          4          5          6
     1  C    4.356367   0.254072   0.622714  -0.008560  -0.010346   0.380328
     2  N    0.254072   6.885114  -0.090834   0.322388   0.330097  -0.121636
     3  O    0.622714  -0.090834   7.967061   0.006562   0.003194  -0.054856
     4  H   -0.008560   0.322388   0.006562   0.409917  -0.021347   0.007447
     5  H   -0.010346   0.330097   0.003194  -0.021347   0.419569   0.003985
     6  H    0.380328  -0.121636  -0.054856   0.007447   0.003985   0.715555
 Mulliken atomic charges:
              1
     1  C    0.405426
     2  N   -0.579201
     3  O   -0.453842
     4  H    0.283592
     5  H    0.274848
     6  H    0.069176
 Sum of Mulliken atomic charges =   0.00000
 Mulliken charges with hydrogens summed into heavy atoms:
              1
     1  C    0.474602
     2  N   -0.020760
     3  O   -0.453842
 Sum of Mulliken charges with hydrogens summed into heavy atoms =   0.00000
 Electronic spatial extent (au):  <R**2>=            145.0939
 Charge=              0.0000 electrons
 Dipole moment (field-independent basis, Debye):
    X=              3.7693    Y=              0.7929    Z=              0.0009  Tot=              3.8518
 Quadrupole moment (field-independent basis, Debye-Ang):
   XX=            -17.3601   YY=            -14.9988   ZZ=            -18.3651
   XY=             -1.0856   XZ=              0.0010   YZ=             -0.0001
 Traceless Quadrupole moment (field-independent basis, Debye-Ang):
   XX=             -0.4521   YY=              1.9092   ZZ=             -1.4571
   XY=             -1.0856   XZ=              0.0010   YZ=             -0.0001
 Octapole moment (field-independent basis, Debye-Ang**2):
  XXX=             11.9047  YYY=             -2.6218  ZZZ=              0.0004  XYY=              2.6422
  XXY=              0.8533  XXZ=              0.0022  XZZ=             -1.5026  YZZ=             -0.3159
  YYZ=              0.0002  XYZ=              0.0001
 Hexadecapole moment (field-independent basis, Debye-Ang**3):
 XXXX=           -104.5305 YYYY=            -32.7896 ZZZZ=            -15.4634 XXXY=              2.6316
 XXXZ=              0.0022 YYYX=             -2.9701 YYYZ=             -0.0013 ZZZX=             -0.0008
 ZZZY=             -0.0007 XXYY=            -22.2493 XXZZ=            -23.3844 YYZZ=             -9.0143
 XXYZ=              0.0001 YYXZ=              0.0001 ZZXY=              0.3141
 N-N= 7.129230531615D+01 E-N=-5.404686599397D+02  KE= 1.683604060348D+02
 Calling FoFJK, ICntrl=      5127 FMM=F ISym2X=0 I1Cent= 0 IOpClX= 0 NMat=1 NMatS=1 NMatT=0.
 FoFJK:  IHMeth= 1 ICntrl=  5127 DoSepK=T KAlg= 1 I1Cent= 0 FoldK=F
 -------------------------------------------------------------------
 Center     Atomic                   Forces (Hartrees/Bohr)
 Number     Number              X              Y              Z
 -------------------------------------------------------------------
      1        6           0.118209520    0.133200090    0.000063778
      2        7           0.037065505   -0.037104525   -0.000033236
      3        8          -0.140508019   -0.089248806   -0.000034511
      4        1           0.004057699    0.004853070    0.000006834
      5        1          -0.005783395   -0.002138351    0.000006883
      6        1          -0.013041310   -0.009561477   -0.000009748
 -------------------------------------------------------------------
 Cartesian Forces:  Max     0.140508019 RMS     0.058932045

 GradGradGradGradGradGradGradGradGradGradGradGradGradGradGradGradGradGrad
 Berny optimization.
 Search for a local minimum.
 Step number   1 out of a maximum of    2
 All quantities printed in internal units (Hartrees-Bohrs-Radians)
 Second derivative matrix not updated -- first step.
 The second derivative matrix:
                          X1        Y1        Z1        X2        Y2
           X1           1.32581
           Y1           0.24977   0.90400
           Z1           0.00007   0.00005   0.13804
           X2          -0.47648   0.12967   0.00005   0.96536
           Y2           0.13786  -0.24000  -0.00003  -0.02171   0.89890
           Z2           0.00005  -0.00003  -0.08006   0.00008   0.00002
           X3          -0.75222  -0.38709  -0.00010  -0.00896  -0.02039
           Y3          -0.39405  -0.36226  -0.00006   0.01462   0.03326
           Z3          -0.00011  -0.00007  -0.04469   0.00001   0.00001
           X4           0.01314   0.02988  -0.00001  -0.12912   0.03886
           Y4           0.00115   0.00261   0.00000   0.02915  -0.45951
           Z4           0.00000  -0.00001   0.01673  -0.00002   0.00008
           X5          -0.00750  -0.01706  -0.00001  -0.36280  -0.16193
           Y5           0.01089   0.02476   0.00001  -0.15144  -0.23197
           Z5           0.00000   0.00001   0.01424  -0.00011  -0.00007
           X6          -0.10275  -0.00518  -0.00001   0.01201   0.02731
           Y6          -0.00562  -0.32911   0.00003  -0.00030  -0.00068
           Z6          -0.00001   0.00005  -0.04426   0.00000  -0.00001
                          Z2        X3        Y3        Z3        X4
           Z2           0.16803
           X3          -0.00001   0.74372
           Y3           0.00001   0.40791   0.32830
           Z3           0.01363   0.00010   0.00006   0.02142
           X4          -0.00002   0.00000   0.00000   0.00000   0.09101
           Y4           0.00005   0.00000   0.00000   0.00000  -0.03248
           Z4          -0.05760   0.00000   0.00000  -0.00722   0.00002
           X5          -0.00009   0.00000   0.00000   0.00000   0.02497
           Y5          -0.00005   0.00000   0.00000   0.00000  -0.03626
           Z5          -0.05669   0.00000   0.00000   0.00746   0.00001
           X6           0.00000   0.01746  -0.02848   0.00001   0.00000
           Y6           0.00000  -0.00043   0.00071   0.00000   0.00000
           Z6           0.01270   0.00000  -0.00001   0.00940   0.00000
                          Y4        Z4        X5        Y5        Z5
           Y4           0.46006
           Z4          -0.00006   0.02865
           X5           0.00218   0.00001   0.34532
           Y5          -0.00317  -0.00002   0.17681   0.21038
           Z5           0.00000   0.01243   0.00010   0.00006   0.02982
           X6           0.00000   0.00000   0.00000   0.00000   0.00000
           Y6           0.00000   0.00000   0.00000   0.00000   0.00000
           Z6           0.00000   0.00702   0.00000   0.00000  -0.00725
                          X6        Y6        Z6
           X6           0.07329
           Y6           0.00635   0.32908
           Z6           0.00000  -0.00004   0.02240
     Eigenvalues ---    0.02718   0.04713   0.08934   0.09165   0.15079
     Eigenvalues ---    0.19838   0.23806   0.36707   0.67439   1.14180
     Eigenvalues ---    1.42156   2.30358
 Angle between quadratic step and forces=  53.12 degrees.
 Linear search not attempted -- first point.
 TrRot= -0.003074  0.003173  0.000005 -0.001353  0.000002 -0.001353
 Variable       Old X    -DE/DX   Delta X   Delta X   Delta X     New X
                                 (Linear)    (Quad)   (Total)
    X1       -0.30375   0.11821   0.00000   0.02873   0.02789  -0.27586
    Y1        0.73262   0.13320   0.00000   0.09028   0.09420   0.82682
    Z1        0.00016   0.00006   0.00000   0.00018   0.00019   0.00034
    X2        2.04278   0.03707   0.00000   0.06666   0.06267   2.10545
    Y2       -0.29901  -0.03710   0.00000  -0.03728  -0.03982  -0.33883
    Z2       -0.00007  -0.00003   0.00000  -0.00007  -0.00007  -0.00014
    X3       -2.25520  -0.14051   0.00000  -0.09085  -0.09526  -2.35046
    Y3       -0.46357  -0.08925   0.00000  -0.03510  -0.02558  -0.48915
    Z3       -0.00012  -0.00003   0.00000  -0.00007  -0.00006  -0.00019
    X4        2.20853   0.00406   0.00000   0.06931   0.06021   2.26874
    Y4       -2.19684   0.00485   0.00000  -0.02734  -0.03032  -2.22716
    Z4        0.00020   0.00001   0.00000   0.00006   0.00006   0.00026
    X5        3.60789  -0.00578   0.00000   0.06676   0.06561   3.67351
    Y5        0.77892  -0.00214   0.00000  -0.05998  -0.06676   0.71216
    Z5        0.00042   0.00001   0.00000  -0.00002  -0.00002   0.00041
    X6       -0.25187  -0.01304   0.00000  -0.12586  -0.12111  -0.37298
    Y6        2.82384  -0.00956   0.00000   0.06409   0.06828   2.89212
    Z6       -0.00008  -0.00001   0.00000  -0.00011  -0.00010  -0.00019
         Item               Value     Threshold  Converged?
 Maximum Force            0.140508     0.000450     NO 
 RMS     Force            0.058932     0.000300     NO 
 Maximum Displacement     0.121112     0.001800     NO 
 RMS     Displacement     0.056534     0.001200     NO 
 Predicted change in Energy=-1.804661D-02
 GradGradGradGradGradGradGradGradGradGradGradGradGradGradGradGradGradGrad

 1\1\GINC-CLODOMIRA\Force\RTD-CAM-B3LYP-FC\6-31G(d,p)\C1H3N1O1\DIEGOA\3
 0-Oct-2019\0\\# cam-b3lyp/6-31G** force nosymm td(root=1,nstates=10)\\
 Title\\0,1\C,-0.160735,0.387687,0.000083\N,1.080995,-0.158228,-0.00003
 7\O,-1.193398,-0.245313,-0.000066\H,1.168705,-1.162517,0.000104\H,1.90
 9215,0.412186,0.000224\H,-0.133284,1.49431,-0.000044\\Version=EM64L-G0
 9RevA.01\HF=-169.8232498\RMSD=2.248e-09\RMSF=5.893e-02\Dipole=0.965100
 5,0.1491642,0.0001965\PG=C01 [X(C1H3N1O1)]\\@


 WE MIGHT AS WELL ATTEMPT TO INTRODUCE A NEW PLANET 
 INTO THE SOLAR SYSTEM, OR TO ANNIHILATE ONE ALREADYIN EXISTENCE, 
 AS TO CREATE OR DESTROY A PARTICLE OF HYDROGEN.
 ALL THE CHANGES WE CAN PRODUCE CONSIST IN SEPARATING PARTICLES
 THAT ARE IN A STATE OF ... COMBINATION, AND JOINING 
 THOSE THAT WERE PREVIOUSLY AT A DISTANCE.

                                    -- JOHN DALTON, 1810
 Job cpu time:  0 days  0 hours  1 minutes 49.2 seconds.
 File lengths (MBytes):  RWF=     14 Int=      0 D2E=      0 Chk=      4 Scr=      1
 Normal termination of Gaussian 09 at Wed Oct 30 12:57:42 2019.
