 Entering Gaussian System, Link 0=g09
 Input=td3.com
 Output=td3.log
 Initial command:
 /home/diegoa/progs/g09/l1.exe /home/diegoa/g09scratch/Gau-2866.inp -scrdir=/home/diegoa/g09scratch/
 Default is to use a total of   4 processors:
                                4 via shared-memory
                                1 via Linda
 Entering Link 1 = /home/diegoa/progs/g09/l1.exe PID=      2877.
  
 Copyright (c) 1988,1990,1992,1993,1995,1998,2003,2009, Gaussian, Inc.
                  All Rights Reserved.
  
 This is part of the Gaussian(R) 09 program.  It is based on
 the Gaussian(R) 03 system (copyright 2003, Gaussian, Inc.),
 the Gaussian(R) 98 system (copyright 1998, Gaussian, Inc.),
 the Gaussian(R) 94 system (copyright 1995, Gaussian, Inc.),
 the Gaussian 92(TM) system (copyright 1992, Gaussian, Inc.),
 the Gaussian 90(TM) system (copyright 1990, Gaussian, Inc.),
 the Gaussian 88(TM) system (copyright 1988, Gaussian, Inc.),
 the Gaussian 86(TM) system (copyright 1986, Carnegie Mellon
 University), and the Gaussian 82(TM) system (copyright 1983,
 Carnegie Mellon University). Gaussian is a federally registered
 trademark of Gaussian, Inc.
  
 This software contains proprietary and confidential information,
 including trade secrets, belonging to Gaussian, Inc.
  
 This software is provided under written license and may be
 used, copied, transmitted, or stored only in accord with that
 written license.
  
 The following legend is applicable only to US Government
 contracts under FAR:
  
                    RESTRICTED RIGHTS LEGEND
  
 Use, reproduction and disclosure by the US Government is
 subject to restrictions as set forth in subparagraphs (a)
 and (c) of the Commercial Computer Software - Restricted
 Rights clause in FAR 52.227-19.
  
 Gaussian, Inc.
 340 Quinnipiac St., Bldg. 40, Wallingford CT 06492
  
  
 ---------------------------------------------------------------
 Warning -- This program may not be used in any manner that
 competes with the business of Gaussian, Inc. or will provide
 assistance to any competitor of Gaussian, Inc.  The licensee
 of this program is prohibited from giving any competitor of
 Gaussian, Inc. access to this program.  By using this program,
 the user acknowledges that Gaussian, Inc. is engaged in the
 business of creating and licensing software in the field of
 computational chemistry and represents and warrants to the
 licensee that it is not a competitor of Gaussian, Inc. and that
 it will not use this program in any manner prohibited above.
 ---------------------------------------------------------------
  

 Cite this work as:
 Gaussian 09, Revision A.01,
 M. J. Frisch, G. W. Trucks, H. B. Schlegel, G. E. Scuseria, 
 M. A. Robb, J. R. Cheeseman, G. Scalmani, V. Barone, B. Mennucci, 
 G. A. Petersson, H. Nakatsuji, M. Caricato, X. Li, H. P. Hratchian, 
 A. F. Izmaylov, J. Bloino, G. Zheng, J. L. Sonnenberg, M. Hada, 
 M. Ehara, K. Toyota, R. Fukuda, J. Hasegawa, M. Ishida, T. Nakajima, 
 Y. Honda, O. Kitao, H. Nakai, T. Vreven, J. A. Montgomery, Jr., 
 J. E. Peralta, F. Ogliaro, M. Bearpark, J. J. Heyd, E. Brothers, 
 K. N. Kudin, V. N. Staroverov, R. Kobayashi, J. Normand, 
 K. Raghavachari, A. Rendell, J. C. Burant, S. S. Iyengar, J. Tomasi, 
 M. Cossi, N. Rega, J. M. Millam, M. Klene, J. E. Knox, J. B. Cross, 
 V. Bakken, C. Adamo, J. Jaramillo, R. Gomperts, R. E. Stratmann, 
 O. Yazyev, A. J. Austin, R. Cammi, C. Pomelli, J. W. Ochterski, 
 R. L. Martin, K. Morokuma, V. G. Zakrzewski, G. A. Voth, 
 P. Salvador, J. J. Dannenberg, S. Dapprich, A. D. Daniels, 
 O. Farkas, J. B. Foresman, J. V. Ortiz, J. Cioslowski, 
 and D. J. Fox, Gaussian, Inc., Wallingford CT, 2009.
 
 ******************************************
 Gaussian 09:  EM64L-G09RevA.01  8-May-2009
                30-Oct-2019 
 ******************************************
 %chk=td3.chk
 %NProcShared=4
 Will use up to    4 processors via shared memory.
 Default route:  MP2=Direct MaxDisk=1000GB DenFit
 -----------------------------------------------------
 # cam-b3lyp/6-31G** force nosymm td(root=3,nstates=8)
 -----------------------------------------------------
 1/10=7,30=1,38=1/1,3;
 2/12=2,15=1,17=6,18=5,40=1/2;
 3/5=1,6=6,7=101,11=2,16=1,25=1,30=1,71=1,74=-40,82=47/1,2,8,3;
 4//1;
 5/5=2,38=5/2;
 8/6=1,10=2,107=3,108=8/1;
 9/8=3,15=2,41=8,42=1/14;
 10/5=4,31=1/2;
 6/7=2,8=2,9=2,10=2,18=1/1;
 7/12=6,13=5,14=3,29=1,30=1/1,2,3,16;
 1/10=7,30=1/3;
 99//99;
 -----
 Title
 -----
 Symbolic Z-matrix:
 Charge =  0 Multiplicity = 1
 6                    -0.16145   0.38702  -0.0001 
 7                     1.08173  -0.15745  -0.00008 
 8                    -1.19445  -0.24537   0.00007 
 1                     1.17461  -1.16276   0.00019 
 1                     1.91214   0.41276   0.00032 
 1                    -0.13457   1.49297   0.00008 
 

 GradGradGradGradGradGradGradGradGradGradGradGradGradGradGradGradGradGrad
 Berny optimization.
 Initialization pass.
 Trust Radius=3.00D-01 FncErr=1.00D-07 GrdErr=1.00D-07
 Number of steps in this run=   2 maximum allowed number of steps=   2.
 GradGradGradGradGradGradGradGradGradGradGradGradGradGradGradGradGradGrad

                          Input orientation:                          
 ---------------------------------------------------------------------
 Center     Atomic      Atomic             Coordinates (Angstroms)
 Number     Number       Type             X           Y           Z
 ---------------------------------------------------------------------
      1          6           0       -0.161453    0.387024   -0.000100
      2          7           0        1.081733   -0.157452   -0.000076
      3          8           0       -1.194449   -0.245367    0.000068
      4          1           0        1.174611   -1.162764    0.000191
      5          1           0        1.912136    0.412757    0.000321
      6          1           0       -0.134568    1.492965    0.000079
 ---------------------------------------------------------------------
                    Distance matrix (angstroms):
                    1          2          3          4          5
     1  C    0.000000
     2  N    1.357190   0.000000
     3  O    1.211197   2.277879   0.000000
     4  H    2.046194   1.009593   2.540485   0.000000
     5  H    2.073749   1.007327   3.175531   1.739600   0.000000
     6  H    1.106268   2.050186   2.035963   2.960886   2.314270
                    6
     6  H    0.000000
 Symmetry turned off by external request.
 Stoichiometry    CH3NO
 Framework group  C1[X(CH3NO)]
 Deg. of freedom    12
 Full point group                 C1      NOp   1
 Rotational constants (GHZ):     73.6451194     11.3730140      9.8516275
 Standard basis: 6-31G(d,p) (6D, 7F)
 Integral buffers will be    131072 words long.
 Raffenetti 2 integral format.
 Two-electron integral symmetry is turned off.
    60 basis functions,   105 primitive gaussians,    60 cartesian basis functions
    12 alpha electrons       12 beta electrons
       nuclear repulsion energy        71.2532756830 Hartrees.
 NAtoms=    6 NActive=    6 NUniq=    6 SFac= 7.50D-01 NAtFMM=   80 NAOKFM=F Big=F
 Standard density basis: Auto (5D, 7F)
   276 Density fitting functions
 One-electron integrals computed using PRISM.
 NBasis=    60 RedAO= T  NBF=    60
 NBsUse=    60 1.00D-06 NBFU=    60
 Harris functional with IExCor=20419 diagonalized for initial guess.
 ExpMin= 1.61D-01 ExpMax= 5.48D+03 ExpMxC= 8.25D+02 IAcc=1 IRadAn=         1 AccDes= 0.00D+00
 HarFok:  IExCor=20419 AccDes= 0.00D+00 IRadAn=         1 IDoV= 1
 ScaDFX=  1.000000  1.000000  1.000000  1.000000
 FoFCou: FMM=F IPFlag=           0 FMFlag=      100000 FMFlg1=           0
         NFxFlg=           0 DoJE=T BraDBF=F KetDBF=T FulRan=T
         Omega=  0.000000  0.000000  1.000000  0.000000  0.000000 ICntrl=     500 IOpCl=  0
         NMat0=    1 NMatS0=    1 NMatT0=    0 NMatD0=    1 NMtDS0=    0 NMtDT0=    0
         I1Cent=           4 NGrid=           0.
 Symmetry not used in FoFCou.
 Requested convergence on RMS density matrix=1.00D-08 within 128 cycles.
 Requested convergence on MAX density matrix=1.00D-06.
 Requested convergence on             energy=1.00D-06.
 No special actions if energy rises.
 Integral accuracy reduced to 1.0D-05 until final iterations.
 FoFJK:  IHMeth= 1 ICntrl=     0 DoSepK=T KAlg= 1 I1Cent= 0 FoldK=F
 FoFJK:  IHMeth= 1 ICntrl=     0 DoSepK=T KAlg= 1 I1Cent= 0 FoldK=F
 FoFJK:  IHMeth= 1 ICntrl=     0 DoSepK=T KAlg= 1 I1Cent= 0 FoldK=F
 FoFJK:  IHMeth= 1 ICntrl=     0 DoSepK=T KAlg= 1 I1Cent= 0 FoldK=F
 FoFJK:  IHMeth= 1 ICntrl=     0 DoSepK=T KAlg= 1 I1Cent= 0 FoldK=F
 FoFJK:  IHMeth= 1 ICntrl=     0 DoSepK=T KAlg= 1 I1Cent= 0 FoldK=F
 FoFJK:  IHMeth= 1 ICntrl=     0 DoSepK=T KAlg= 1 I1Cent= 0 FoldK=F
 Initial convergence to 1.0D-05 achieved.  Increase integral accuracy.
 FoFJK:  IHMeth= 1 ICntrl=     0 DoSepK=T KAlg= 1 I1Cent= 0 FoldK=F
 FoFJK:  IHMeth= 1 ICntrl=     0 DoSepK=T KAlg= 1 I1Cent= 0 FoldK=F
 FoFJK:  IHMeth= 1 ICntrl=     0 DoSepK=T KAlg= 1 I1Cent= 0 FoldK=F
 FoFJK:  IHMeth= 1 ICntrl=     0 DoSepK=T KAlg= 1 I1Cent= 0 FoldK=F
 FoFJK:  IHMeth= 1 ICntrl=     0 DoSepK=T KAlg= 1 I1Cent= 0 FoldK=F
 FoFJK:  IHMeth= 1 ICntrl=     0 DoSepK=T KAlg= 1 I1Cent= 0 FoldK=F
 FoFJK:  IHMeth= 1 ICntrl=     0 DoSepK=T KAlg= 1 I1Cent= 0 FoldK=F
 SCF Done:  E(RCAM-B3LYP) =  -169.823241826     A.U. after   14 cycles
             Convg  =    0.2283D-08             -V/T =  2.0087
 ExpMin= 1.61D-01 ExpMax= 5.48D+03 ExpMxC= 8.25D+02 IAcc=1 IRadAn=         1 AccDes= 0.00D+00
 HarFok:  IExCor=  205 AccDes= 0.00D+00 IRadAn=         1 IDoV=-2
 ScaDFX=  1.000000  1.000000  1.000000  1.000000
 Range of M.O.s used for correlation:     4    60
 NBasis=    60 NAE=    12 NBE=    12 NFC=     3 NFV=     0
 NROrb=     57 NOA=     9 NOB=     9 NVA=    48 NVB=    48
    32 initial guesses have been made.
 Convergence on wavefunction:    0.000001000000000
 Iteration     1 Dimension    32 NMult    32
 CISAX will form    32 AO SS matrices at one time.
 FoFJK:  IHMeth= 1 ICntrl=     0 DoSepK=T KAlg= 1 I1Cent= 0 FoldK=F
 FoFJK:  IHMeth= 1 ICntrl=     0 DoSepK=T KAlg= 1 I1Cent= 0 FoldK=F
 New state      2 was old state      3
 New state      3 was old state      4
 New state      4 was old state      6
 New state      6 was old state      2
 No map to state      7
 Iteration     2 Dimension    48 NMult    48
 FoFJK:  IHMeth= 1 ICntrl=     0 DoSepK=T KAlg= 1 I1Cent= 0 FoldK=F
 FoFJK:  IHMeth= 1 ICntrl=     0 DoSepK=T KAlg= 1 I1Cent= 0 FoldK=F
 Iteration     3 Dimension    64 NMult    64
 FoFJK:  IHMeth= 1 ICntrl=     0 DoSepK=T KAlg= 1 I1Cent= 0 FoldK=F
 FoFJK:  IHMeth= 1 ICntrl=     0 DoSepK=T KAlg= 1 I1Cent= 0 FoldK=F
 Iteration     4 Dimension    80 NMult    80
 FoFJK:  IHMeth= 1 ICntrl=     0 DoSepK=T KAlg= 1 I1Cent= 0 FoldK=F
 FoFJK:  IHMeth= 1 ICntrl=     0 DoSepK=T KAlg= 1 I1Cent= 0 FoldK=F
 Iteration     5 Dimension    96 NMult    96
 FoFJK:  IHMeth= 1 ICntrl=     0 DoSepK=T KAlg= 1 I1Cent= 0 FoldK=F
 FoFJK:  IHMeth= 1 ICntrl=     0 DoSepK=T KAlg= 1 I1Cent= 0 FoldK=F
 Iteration     6 Dimension   112 NMult   112
 FoFJK:  IHMeth= 1 ICntrl=     0 DoSepK=T KAlg= 1 I1Cent= 0 FoldK=F
 FoFJK:  IHMeth= 1 ICntrl=     0 DoSepK=T KAlg= 1 I1Cent= 0 FoldK=F
 Iteration     7 Dimension   122 NMult   122
 FoFJK:  IHMeth= 1 ICntrl=     0 DoSepK=T KAlg= 1 I1Cent= 0 FoldK=F
 FoFJK:  IHMeth= 1 ICntrl=     0 DoSepK=T KAlg= 1 I1Cent= 0 FoldK=F
 Iteration     8 Dimension   124 NMult   124
 FoFJK:  IHMeth= 1 ICntrl=     0 DoSepK=T KAlg= 1 I1Cent= 0 FoldK=F
 FoFJK:  IHMeth= 1 ICntrl=     0 DoSepK=T KAlg= 1 I1Cent= 0 FoldK=F
 Iteration     9 Dimension   126 NMult   126
 FoFJK:  IHMeth= 1 ICntrl=     0 DoSepK=T KAlg= 1 I1Cent= 0 FoldK=F
 FoFJK:  IHMeth= 1 ICntrl=     0 DoSepK=T KAlg= 1 I1Cent= 0 FoldK=F
 ***********************************************************************
 Excited states from <AA,BB:AA,BB> singles matrix:
 ***********************************************************************
 
 Ground to excited state transition electric dipole moments (Au):
       state          X           Y           Z        Dip. S.      Osc.
         1         0.0000      0.0001      0.0886      0.0079      0.0011
         2         0.6779     -0.0649      0.0000      0.4638      0.0915
         3        -0.0007      0.0001      0.1210      0.0146      0.0030
         4        -0.0014     -0.0002     -0.0352      0.0012      0.0003
         5        -1.0196      0.3161      0.0000      1.1395      0.2608
         6        -0.4415     -0.6434      0.0000      0.6089      0.1438
         7         0.0004      0.0001     -0.1076      0.0116      0.0029
         8         0.0008     -0.0008      0.0052      0.0000      0.0000
 Ground to excited state transition velocity dipole moments (Au):
       state          X           Y           Z        Dip. S.      Osc.
         1         0.0000      0.0000     -0.0207      0.0004      0.0013
         2        -0.1968      0.0149      0.0000      0.0389      0.0877
         3         0.0002      0.0000     -0.0763      0.0058      0.0125
         4         0.0004      0.0001      0.0212      0.0005      0.0009
         5         0.3240     -0.1026      0.0000      0.1155      0.2243
         6         0.1680      0.2172      0.0000      0.0754      0.1419
         7        -0.0002      0.0000      0.0624      0.0039      0.0069
         8        -0.0003      0.0003      0.0019      0.0000      0.0000
 Ground to excited state transition magnetic dipole moments (Au):
       state          X           Y           Z
         1        -0.9088     -0.4435      0.0001
         2         0.0003      0.0003      0.3054
         3        -0.0047      0.3309     -0.0003
         4        -0.2085     -0.0190     -0.0002
         5         0.0002      0.0002     -0.2393
         6         0.0001      0.0001      0.1890
         7        -0.9210      1.2140      0.0000
         8         0.0949     -0.0845      0.0006
 <0|del|b> * <b|rxdel|0> + <0|del|b> * <b|delr+rdel|0>
 Rotatory Strengths (R) in cgs (10**-40 erg-esu-cm/Gauss)
       state          XX          YY          ZZ    R(velocity)
         1         0.0127      0.0175      0.0371      0.0225
 Total R(velocity) tensor for State=          1
                 1             2             3 
      1   0.127446D-01 -0.854386D-02  0.174543D-05
      2  -0.368146D-01  0.174973D-01  0.339113D-05
      3  -0.297570D+02 -0.151291D+02  0.371084D-01
         2        -0.0102     -0.0944     -0.0598     -0.0548
 Total R(velocity) tensor for State=          2
                 1             2             3 
      1  -0.102436D-01  0.106340D+00  0.118252D+03
      2  -0.118404D-01 -0.944355D-01  0.302456D+02
      3   0.609840D+00  0.804484D+01 -0.597951D-01
         3         0.0387      0.0094     -0.0050      0.0144
 Total R(velocity) tensor for State=          3
                 1             2             3 
      1   0.387037D-01 -0.158290D+00  0.134492D-03
      2   0.109290D-01  0.943763D-02  0.314378D-04
      3  -0.148940D+01  0.431485D+01 -0.496096D-02
         4        -0.0077     -0.1585     -0.0369     -0.0677
 Total R(velocity) tensor for State=          4
                 1             2             3 
      1  -0.769631D-02 -0.924837D-03  0.162332D-03
      2   0.356930D-01 -0.158525D+00 -0.330760D-03
      3   0.170615D+01  0.567303D+00 -0.369257D-01
         5        -0.0149      0.1055     -0.0090      0.0272
 Total R(velocity) tensor for State=          5
                 1             2             3 
      1  -0.149399D-01 -0.463427D-01  0.938753D+02
      2   0.335009D-01  0.105457D+00 -0.365477D+02
      3   0.459903D+01  0.145216D+02 -0.898902D-02
         6         0.0083      0.0491      0.0105      0.0226
 Total R(velocity) tensor for State=          6
                 1             2             3 
      1   0.828058D-02 -0.701372D-02 -0.481152D+02
      2  -0.653415D-01  0.490558D-01 -0.117188D+03
      3   0.207849D+01 -0.160763D+01  0.105250D-01
         7        -0.0580      0.1627      0.0751      0.0600
 Total R(velocity) tensor for State=          7
                 1             2             3 
      1  -0.579508D-01  0.231304D+00  0.133676D-04
      2  -0.515660D-01  0.162700D+00 -0.180528D-04
      3   0.446859D+02 -0.553213D+02  0.751447D-01
         8        -0.0450     -0.0431     -0.0096     -0.0326
 Total R(velocity) tensor for State=          8
                 1             2             3 
      1  -0.449646D-01 -0.438392D-01 -0.485294D-03
      2  -0.380484D-01 -0.431365D-01  0.548594D-03
      3  -0.520846D-01  0.619769D-02 -0.961046D-02
 1/2[<0|r|b>*<b|rxdel|0> + (<0|rxdel|b>*<b|r|0>)*]
 Rotatory Strengths (R) in cgs (10**-40 erg-esu-cm/Gauss)
       state          XX          YY          ZZ     R(length)     R(au)
         1         0.0242      0.0338     -0.0085      0.0165      0.0000
         2        -0.1543      0.0116      0.0098     -0.0443     -0.0001
         3        -0.0024     -0.0132      0.0258      0.0034      0.0000
         4        -0.1994     -0.0027     -0.0058     -0.0693     -0.0001
         5         0.1364     -0.0468     -0.0028      0.0289      0.0001
         6         0.0325      0.0357      0.0027      0.0236      0.0001
         7         0.2779     -0.0883      0.0036      0.0644      0.0001
         8        -0.0521     -0.0479     -0.0021     -0.0340     -0.0001
  1/2[<0|del|b>*<b|r|0> + (<0|r|b>*<b|del|0>)*] (Au)
       state          X           Y           Z        Dip. S.   Osc.(frdel)
         1         0.0000      0.0000     -0.0018      0.0018      0.0012
         2        -0.1334     -0.0010      0.0000      0.1344      0.0896
         3         0.0000      0.0000     -0.0092      0.0092      0.0062
         4         0.0000      0.0000     -0.0007      0.0007      0.0005
         5        -0.3304     -0.0324      0.0000      0.3628      0.2419
         6        -0.0742     -0.1398      0.0000      0.2139      0.1426
         7         0.0000      0.0000     -0.0067      0.0067      0.0045
         8         0.0000      0.0000      0.0000      0.0000      0.0000
 Ground to excited state transition densities written to RWF  633

 Excitation energies and oscillator strengths:
 
 Excited state symmetry could not be determined.
 Excited State   1:      Singlet-?Sym    5.7627 eV  215.15 nm  f=0.0011  <S**2>=0.000
      12 -> 13         0.70630
 
 Excited state symmetry could not be determined.
 Excited State   2:      Singlet-?Sym    8.0543 eV  153.94 nm  f=0.0915  <S**2>=0.000
      11 -> 13         0.60823
      12 -> 14         0.34352
 
 Excited state symmetry could not be determined.
 Excited State   3:      Singlet-?Sym    8.4252 eV  147.16 nm  f=0.0030  <S**2>=0.000
      10 -> 14         0.10492
      11 -> 14         0.69763
 This state for optimization and/or second-order correction.
 Copying the excited state density for this state as the 1-particle RhoCI density.
 
 Excited state symmetry could not be determined.
 Excited State   4:      Singlet-?Sym    9.2774 eV  133.64 nm  f=0.0003  <S**2>=0.000
      11 -> 15         0.69247
 
 Excited state symmetry could not be determined.
 Excited State   5:      Singlet-?Sym    9.3415 eV  132.72 nm  f=0.2608  <S**2>=0.000
      11 -> 13        -0.30706
      12 -> 14         0.57899
      12 -> 15        -0.24808
 
 Excited state symmetry could not be determined.
 Excited State   6:      Singlet-?Sym    9.6405 eV  128.61 nm  f=0.1438  <S**2>=0.000
      10 -> 13        -0.10371
      11 -> 13        -0.13253
      12 -> 14         0.19364
      12 -> 15         0.64880
 
 Excited state symmetry could not be determined.
 Excited State   7:      Singlet-?Sym   10.3148 eV  120.20 nm  f=0.0029  <S**2>=0.000
       9 -> 13         0.70434
 
 Excited state symmetry could not be determined.
 Excited State   8:      Singlet-?Sym   10.9329 eV  113.40 nm  f=0.0000  <S**2>=0.000
      11 -> 15         0.11088
      11 -> 16         0.68605
 SavETr:  write IOETrn=   770 NScale= 10 NData=  16 NLR=1 LETran=     154.
 FoFJK:  IHMeth= 1 ICntrl=     0 DoSepK=T KAlg= 1 I1Cent= 0 FoldK=F
 FoFJK:  IHMeth= 1 ICntrl=     0 DoSepK=T KAlg= 1 I1Cent= 0 FoldK=F
          IDoAtm=111111
          Differentiating once with respect to electric field.
                with respect to dipole field.
          Differentiating once with respect to nuclear coordinates.
          There are     1 degrees of freedom in the 1st order CPHF.  IDoFFX=0.
 FoFJK:  IHMeth= 1 ICntrl=     0 DoSepK=T KAlg= 1 I1Cent= 0 FoldK=F
 LinEq1:  Iter=  0 NonCon=     1 RMS=2.65D-02 Max=1.94D-01
 AX will form     1 AO Fock derivatives at one time.
 FoFJK:  IHMeth= 1 ICntrl=     0 DoSepK=T KAlg= 1 I1Cent= 0 FoldK=F
 LinEq1:  Iter=  1 NonCon=     1 RMS=9.81D-03 Max=1.54D-01
 FoFJK:  IHMeth= 1 ICntrl=     0 DoSepK=T KAlg= 1 I1Cent= 0 FoldK=F
 LinEq1:  Iter=  2 NonCon=     1 RMS=6.24D-03 Max=7.69D-02
 FoFJK:  IHMeth= 1 ICntrl=     0 DoSepK=T KAlg= 1 I1Cent= 0 FoldK=F
 LinEq1:  Iter=  3 NonCon=     1 RMS=3.20D-03 Max=3.70D-02
 FoFJK:  IHMeth= 1 ICntrl=     0 DoSepK=T KAlg= 1 I1Cent= 0 FoldK=F
 LinEq1:  Iter=  4 NonCon=     1 RMS=1.36D-03 Max=1.42D-02
 FoFJK:  IHMeth= 1 ICntrl=     0 DoSepK=T KAlg= 1 I1Cent= 0 FoldK=F
 LinEq1:  Iter=  5 NonCon=     1 RMS=2.85D-04 Max=2.06D-03
 FoFJK:  IHMeth= 1 ICntrl=     0 DoSepK=T KAlg= 1 I1Cent= 0 FoldK=F
 LinEq1:  Iter=  6 NonCon=     1 RMS=4.65D-05 Max=3.23D-04
 FoFJK:  IHMeth= 1 ICntrl=     0 DoSepK=T KAlg= 1 I1Cent= 0 FoldK=F
 LinEq1:  Iter=  7 NonCon=     1 RMS=7.59D-06 Max=5.04D-05
 FoFJK:  IHMeth= 1 ICntrl=     0 DoSepK=T KAlg= 1 I1Cent= 0 FoldK=F
 LinEq1:  Iter=  8 NonCon=     1 RMS=1.31D-06 Max=7.98D-06
 FoFJK:  IHMeth= 1 ICntrl=     0 DoSepK=T KAlg= 1 I1Cent= 0 FoldK=F
 LinEq1:  Iter=  9 NonCon=     1 RMS=1.64D-07 Max=1.58D-06
 FoFJK:  IHMeth= 1 ICntrl=     0 DoSepK=T KAlg= 1 I1Cent= 0 FoldK=F
 LinEq1:  Iter= 10 NonCon=     1 RMS=3.43D-08 Max=5.69D-07
 FoFJK:  IHMeth= 1 ICntrl=     0 DoSepK=T KAlg= 1 I1Cent= 0 FoldK=F
 LinEq1:  Iter= 11 NonCon=     1 RMS=8.99D-09 Max=1.11D-07
 FoFJK:  IHMeth= 1 ICntrl=     0 DoSepK=T KAlg= 1 I1Cent= 0 FoldK=F
 LinEq1:  Iter= 12 NonCon=     1 RMS=1.54D-09 Max=8.53D-09
 FoFJK:  IHMeth= 1 ICntrl=     0 DoSepK=T KAlg= 1 I1Cent= 0 FoldK=F
 LinEq1:  Iter= 13 NonCon=     1 RMS=2.10D-10 Max=1.31D-09
 FoFJK:  IHMeth= 1 ICntrl=     0 DoSepK=T KAlg= 1 I1Cent= 0 FoldK=F
 LinEq1:  Iter= 14 NonCon=     0 RMS=2.72D-11 Max=1.63D-10
 Linear equations converged to 1.000D-10 1.000D-09 after    14 iterations.
 FoFJK:  IHMeth= 1 ICntrl=     0 DoSepK=T KAlg= 1 I1Cent= 0 FoldK=F
 End of Minotr Frequency-dependent properties file   721 does not exist.
 End of Minotr Frequency-dependent properties file   722 does not exist.

 **********************************************************************

            Population analysis using the SCF density.

 **********************************************************************

 Alpha  occ. eigenvalues --  -19.18776 -14.43569 -10.36394  -1.11392  -0.98811
 Alpha  occ. eigenvalues --   -0.69889  -0.62604  -0.54660  -0.47700  -0.47230
 Alpha  occ. eigenvalues --   -0.33376  -0.31818
 Alpha virt. eigenvalues --    0.08769   0.12511   0.16182   0.21850   0.32101
 Alpha virt. eigenvalues --    0.40538   0.59218   0.60216   0.70830   0.74155
 Alpha virt. eigenvalues --    0.76156   0.77708   0.89044   0.90464   0.91205
 Alpha virt. eigenvalues --    0.93111   1.07155   1.14086   1.27506   1.34574
 Alpha virt. eigenvalues --    1.39815   1.45334   1.56990   1.57867   1.83053
 Alpha virt. eigenvalues --    1.89576   1.91610   2.04961   2.08328   2.14916
 Alpha virt. eigenvalues --    2.19219   2.20661   2.34272   2.43879   2.56748
 Alpha virt. eigenvalues --    2.59091   2.69433   2.82511   2.83549   2.93609
 Alpha virt. eigenvalues --    3.06999   3.09365   3.31767   3.52635   3.72489
 Alpha virt. eigenvalues --    3.93934   4.02953   4.45392
          Condensed to atoms (all electrons):
              1          2          3          4          5          6
     1  C    4.355917   0.253352   0.622785  -0.008523  -0.010248   0.380594
     2  N    0.253352   6.886967  -0.090354   0.322299   0.329856  -0.121722
     3  O    0.622785  -0.090354   7.966482   0.006421   0.003163  -0.054993
     4  H   -0.008523   0.322299   0.006421   0.410403  -0.021561   0.007405
     5  H   -0.010248   0.329856   0.003163  -0.021561   0.419875   0.003942
     6  H    0.380594  -0.121722  -0.054993   0.007405   0.003942   0.715524
 Mulliken atomic charges:
              1
     1  C    0.406122
     2  N   -0.580399
     3  O   -0.453504
     4  H    0.283557
     5  H    0.274972
     6  H    0.069251
 Sum of Mulliken atomic charges =   0.00000
 Mulliken charges with hydrogens summed into heavy atoms:
              1
     1  C    0.475373
     2  N   -0.021870
     3  O   -0.453504
 Sum of Mulliken charges with hydrogens summed into heavy atoms =   0.00000
 Electronic spatial extent (au):  <R**2>=            145.2648
 Charge=              0.0000 electrons
 Dipole moment (field-independent basis, Debye):
    X=              3.7738    Y=              0.7914    Z=              0.0009  Tot=              3.8559
 Quadrupole moment (field-independent basis, Debye-Ang):
   XX=            -17.3382   YY=            -15.0042   ZZ=            -18.3692
   XY=             -1.0965   XZ=              0.0022   YZ=             -0.0002
 Traceless Quadrupole moment (field-independent basis, Debye-Ang):
   XX=             -0.4344   YY=              1.8997   ZZ=             -1.4653
   XY=             -1.0965   XZ=              0.0022   YZ=             -0.0002
 Octapole moment (field-independent basis, Debye-Ang**2):
  XXX=             11.9654  YYY=             -2.6177  ZZZ=              0.0011  XYY=              2.6509
  XXY=              0.8372  XXZ=              0.0035  XZZ=             -1.5103  YZZ=             -0.3146
  YYZ=              0.0011  XYZ=             -0.0002
 Hexadecapole moment (field-independent basis, Debye-Ang**3):
 XXXX=           -104.6330 YYYY=            -32.7629 ZZZZ=            -15.4691 XXXY=              2.6031
 XXXZ=              0.0075 YYYX=             -2.9904 YYYZ=              0.0002 ZZZX=              0.0019
 ZZZY=              0.0003 XXYY=            -22.2531 XXZZ=            -23.4322 YYZZ=             -9.0097
 XXYZ=              0.0003 YYXZ=              0.0013 ZZXY=              0.3131
 N-N= 7.125327568303D+01 E-N=-5.403866096139D+02  KE= 1.683535557623D+02
 Calling FoFJK, ICntrl=      5127 FMM=F ISym2X=0 I1Cent= 0 IOpClX= 0 NMat=1 NMatS=1 NMatT=0.
 FoFJK:  IHMeth= 1 ICntrl=  5127 DoSepK=T KAlg= 1 I1Cent= 0 FoldK=F
 -------------------------------------------------------------------
 Center     Atomic                   Forces (Hartrees/Bohr)
 Number     Number              X              Y              Z
 -------------------------------------------------------------------
      1        6           0.014622753    0.035299138    0.000040498
      2        7          -0.084311341   -0.030893719    0.000015357
      3        8          -0.020662330   -0.017857903   -0.000020357
      4        1          -0.001143606   -0.057579924   -0.000021519
      5        1           0.089791641    0.078137651    0.000010412
      6        1           0.001702884   -0.007105244   -0.000024391
 -------------------------------------------------------------------
 Cartesian Forces:  Max     0.089791641 RMS     0.039304148

 GradGradGradGradGradGradGradGradGradGradGradGradGradGradGradGradGradGrad
 Berny optimization.
 Search for a local minimum.
 Step number   1 out of a maximum of    2
 All quantities printed in internal units (Hartrees-Bohrs-Radians)
 Second derivative matrix not updated -- first step.
 The second derivative matrix:
                          X1        Y1        Z1        X2        Y2
           X1           1.32560
           Y1           0.25040   0.90357
           Z1          -0.00012  -0.00002   0.13797
           X2          -0.47559   0.12878   0.00002   0.96267
           Y2           0.13689  -0.23936  -0.00001  -0.02359   0.89360
           Z2          -0.00002   0.00001  -0.08005   0.00020  -0.00004
           X3          -0.75284  -0.38695   0.00011  -0.00892  -0.02037
           Y3          -0.39381  -0.36184   0.00006   0.01457   0.03327
           Z3           0.00013   0.00007  -0.04468   0.00000   0.00000
           X4           0.01306   0.02983  -0.00001  -0.12896   0.04046
           Y4           0.00121   0.00276   0.00000   0.03062  -0.45667
           Z4           0.00000   0.00000   0.01675  -0.00004   0.00014
           X5          -0.00744  -0.01699  -0.00001  -0.36117  -0.16072
           Y5           0.01084   0.02475   0.00001  -0.15009  -0.23017
           Z5           0.00000   0.00000   0.01420  -0.00017  -0.00009
           X6          -0.10279  -0.00505   0.00001   0.01197   0.02733
           Y6          -0.00552  -0.32986  -0.00005  -0.00029  -0.00066
           Z6           0.00001  -0.00006  -0.04420   0.00000  -0.00001
                          Z2        X3        Y3        Z3        X4
           Z2           0.16776
           X3           0.00001   0.74430
           Y3          -0.00001   0.40774   0.32788
           Z3           0.01364  -0.00012  -0.00007   0.02140
           X4          -0.00004   0.00000   0.00000   0.00000   0.09107
           Y4           0.00010   0.00000   0.00000   0.00000  -0.03412
           Z4          -0.05749   0.00000   0.00000  -0.00720   0.00003
           X5          -0.00015   0.00000   0.00000   0.00000   0.02483
           Y5          -0.00007   0.00000   0.00000   0.00000  -0.03616
           Z5          -0.05651   0.00000   0.00000   0.00744   0.00002
           X6           0.00001   0.01745  -0.02851  -0.00001   0.00000
           Y6           0.00000  -0.00042   0.00069   0.00000   0.00000
           Z6           0.01266   0.00000   0.00001   0.00940   0.00000
                          Y4        Z4        X5        Y5        Z5
           Y4           0.45725
           Z4          -0.00011   0.02856
           X5           0.00229   0.00001   0.34378
           Y5          -0.00334  -0.00002   0.17542   0.20876
           Z5           0.00001   0.01239   0.00015   0.00008   0.02970
           X6           0.00000   0.00000   0.00000   0.00000   0.00000
           Y6           0.00000   0.00000   0.00000   0.00000   0.00000
           Z6           0.00000   0.00699   0.00000   0.00000  -0.00722
                          X6        Y6        Z6
           X6           0.07337
           Y6           0.00624   0.32983
           Z6          -0.00001   0.00005   0.02236
     Eigenvalues ---    0.02709   0.04711   0.08917   0.09160   0.15079
     Eigenvalues ---    0.19788   0.23792   0.36567   0.67423   1.13438
     Eigenvalues ---    1.41877   2.30369
 Quadratic step=3.011D-01 exceeds max=3.000D-01 adjusted using Lamda=-1.080D-03.
 Angle between NR and scaled steps=   0.19 degrees.
 Angle between quadratic step and forces=  35.98 degrees.
 Linear search not attempted -- first point.
 TrRot= -0.013644 -0.003713  0.000089 -0.001189 -0.000043 -0.001189
 Variable       Old X    -DE/DX   Delta X   Delta X   Delta X     New X
                                 (Linear)    (Quad)   (Total)
    X1       -0.30510   0.01462   0.00000  -0.00834  -0.02020  -0.32530
    Y1        0.73137   0.03530   0.00000   0.01960   0.01663   0.74800
    Z1       -0.00019   0.00004   0.00000   0.00040   0.00047   0.00029
    X2        2.04418  -0.08431   0.00000  -0.01385  -0.02828   2.01590
    Y2       -0.29754  -0.03089   0.00000  -0.03058  -0.03912  -0.33666
    Z2       -0.00014   0.00002   0.00000   0.00032   0.00049   0.00035
    X3       -2.25718  -0.02066   0.00000  -0.02386  -0.03862  -2.29580
    Y3       -0.46368  -0.01786   0.00000  -0.00688  -0.00517  -0.46885
    Z3        0.00013  -0.00002   0.00000  -0.00019  -0.00020  -0.00007
    X4        2.21969  -0.00114   0.00000  -0.03283  -0.05208   2.16762
    Y4       -2.19731  -0.05758   0.00000  -0.15680  -0.16570  -2.36301
    Z4        0.00036  -0.00002   0.00000  -0.00039  -0.00021   0.00015
    X5        3.61341   0.08979   0.00000   0.12805   0.11676   3.73017
    Y5        0.78000   0.07814   0.00000   0.21187   0.19926   0.97925
    Z5        0.00061   0.00001   0.00000  -0.00049  -0.00024   0.00037
    X6       -0.25430   0.00170   0.00000   0.02936   0.02242  -0.23187
    Y6        2.82129  -0.00711   0.00000  -0.00271  -0.00589   2.81540
    Z6        0.00015  -0.00002   0.00000  -0.00040  -0.00032  -0.00017
         Item               Value     Threshold  Converged?
 Maximum Force            0.089792     0.000450     NO 
 RMS     Force            0.039304     0.000300     NO 
 Maximum Displacement     0.199255     0.001800     NO 
 RMS     Displacement     0.070149     0.001200     NO 
 Predicted change in Energy=-2.029197D-02
 GradGradGradGradGradGradGradGradGradGradGradGradGradGradGradGradGradGrad

 1\1\GINC-CLODOMIRA\Force\RTD-CAM-B3LYP-FC\6-31G(d,p)\C1H3N1O1\DIEGOA\3
 0-Oct-2019\0\\# cam-b3lyp/6-31G** force nosymm td(root=3,nstates=8)\\T
 itle\\0,1\C,-0.161453,0.387024,-0.0001\N,1.081733,-0.157452,-0.000076\
 O,-1.194449,-0.245367,0.000068\H,1.174611,-1.162764,0.000191\H,1.91213
 6,0.412757,0.000321\H,-0.134568,1.492965,0.000079\\Version=EM64L-G09Re
 vA.01\HF=-169.8232418\RMSD=2.283e-09\RMSF=3.930e-02\Dipole=-0.4144957,
 0.2022961,-0.0003577\PG=C01 [X(C1H3N1O1)]\\@


 At the touch of love, everyone becomves a poet.
                                -- Plato
 Job cpu time:  0 days  0 hours  1 minutes 41.2 seconds.
 File lengths (MBytes):  RWF=     14 Int=      0 D2E=      0 Chk=      3 Scr=      1
 Normal termination of Gaussian 09 at Wed Oct 30 12:57:06 2019.
