Title                                                                   
FOpt      RTD-CAM-B3LYP-FC                                            Aug-CC-pVDZ         
Number of atoms                            I                6
Info1-9                                    I   N=           9
          14          14           0           0           0         100
           2         218           1
Charge                                     I                0
Multiplicity                               I                1
Number of electrons                        I               24
Number of alpha electrons                  I               12
Number of beta electrons                   I               12
Number of basis functions                  I               96
Number of independent functions            I               96
Number of point charges in /Mol/           I                0
Number of translation vectors              I                0
Atomic numbers                             I   N=           6
           6           7           8           1           1           1
Nuclear charges                            R   N=           6
  6.00000000E+00  7.00000000E+00  8.00000000E+00  1.00000000E+00  1.00000000E+00
  1.00000000E+00
Current cartesian coordinates              R   N=          18
 -2.64391394E-01  8.24719262E-01  3.33119727E-05  2.01536518E+00 -2.84208147E-01
  3.92992715E-04 -2.15936170E+00 -5.80428272E-01 -4.08877949E-04  2.12225047E+00
 -2.21544088E+00  3.15123344E-04  3.66588639E+00  7.45958886E-01 -8.97192100E-05
 -3.15717544E-01  2.88717201E+00  1.67239698E-04
Force Field                                I                0
Int Atom Types                             I   N=           6
           0           0           0           0           0           0
MM charges                                 R   N=           6
  0.00000000E+00  0.00000000E+00  0.00000000E+00  0.00000000E+00  0.00000000E+00
  0.00000000E+00
Integer atomic weights                     I   N=           6
          12          14          16           1           1           1
Real atomic weights                        R   N=           6
  1.20000000E+01  1.40030740E+01  1.59949146E+01  1.00782504E+00  1.00782504E+00
  1.00782504E+00
Atom fragment info                         I   N=           6
           0           0           0           0           0           0
Atom residue num                           I   N=           6
           0           0           0           0           0           0
Nuclear spins                              I   N=           6
           0           2           0           1           1           1
Nuclear ZEff                               R   N=           6
 -3.60000000E+00 -4.55000000E+00 -5.60000000E+00 -1.00000000E+00 -1.00000000E+00
 -1.00000000E+00
Nuclear QMom                               R   N=           6
  0.00000000E+00  2.04400000E+00  0.00000000E+00  0.00000000E+00  0.00000000E+00
  0.00000000E+00
Nuclear GFac                               R   N=           6
  0.00000000E+00  4.03761000E-01  0.00000000E+00  2.79284600E+00  2.79284600E+00
  2.79284600E+00
MicOpt                                     I   N=           6
          -1          -1          -1          -1          -1          -1
Number of contracted shells                I               42
Number of primitive shells                 I               90
Pure/Cartesian d shells                    I                0
Pure/Cartesian f shells                    I                0
Highest angular momentum                   I                2
Largest degree of contraction              I                7
Shell types                                I   N=          42
           0           0           0           0           1           1
           1          -2          -2           0           0           0
           0           1           1           1          -2          -2
           0           0           0           0           1           1
           1          -2          -2           0           0           0
           1           1           0           0           0           1
           1           0           0           0           1           1
Number of primitives per shell             I   N=          42
           7           7           1           1           3           1
           1           1           1           7           7           1
           1           3           1           1           1           1
           7           7           1           1           3           1
           1           1           1           3           1           1
           1           1           3           1           1           1
           1           3           1           1           1           1
Shell to atom map                          I   N=          42
           1           1           1           1           1           1
           1           1           1           2           2           2
           2           2           2           2           2           2
           3           3           3           3           3           3
           3           3           3           4           4           4
           4           4           5           5           5           5
           5           6           6           6           6           6
Primitive exponents                        R   N=          90
  6.66500000E+03  1.00000000E+03  2.28000000E+02  6.47100000E+01  2.10600000E+01
  7.49500000E+00  2.79700000E+00  6.66500000E+03  2.28000000E+02  6.47100000E+01
  2.10600000E+01  7.49500000E+00  2.79700000E+00  5.21500000E-01  1.59600000E-01
  4.69000000E-02  9.43900000E+00  2.00200000E+00  5.45600000E-01  1.51700000E-01
  4.04100000E-02  5.50000000E-01  1.51000000E-01  9.04600000E+03  1.35700000E+03
  3.09300000E+02  8.77300000E+01  2.85600000E+01  1.02100000E+01  3.83800000E+00
  9.04600000E+03  3.09300000E+02  8.77300000E+01  2.85600000E+01  1.02100000E+01
  3.83800000E+00  7.46600000E-01  2.24800000E-01  6.12400000E-02  1.35500000E+01
  2.91700000E+00  7.97300000E-01  2.18500000E-01  5.61100000E-02  8.17000000E-01
  2.30000000E-01  1.17200000E+04  1.75900000E+03  4.00800000E+02  1.13700000E+02
  3.70300000E+01  1.32700000E+01  5.02500000E+00  1.17200000E+04  4.00800000E+02
  1.13700000E+02  3.70300000E+01  1.32700000E+01  5.02500000E+00  1.01300000E+00
  3.02300000E-01  7.89600000E-02  1.77000000E+01  3.85400000E+00  1.04600000E+00
  2.75300000E-01  6.85600000E-02  1.18500000E+00  3.32000000E-01  1.30100000E+01
  1.96200000E+00  4.44600000E-01  1.22000000E-01  2.97400000E-02  7.27000000E-01
  1.41000000E-01  1.30100000E+01  1.96200000E+00  4.44600000E-01  1.22000000E-01
  2.97400000E-02  7.27000000E-01  1.41000000E-01  1.30100000E+01  1.96200000E+00
  4.44600000E-01  1.22000000E-01  2.97400000E-02  7.27000000E-01  1.41000000E-01
Contraction coefficients                   R   N=          90
  6.93516317E-04  5.34150243E-03  2.71366714E-02  1.01992385E-01  2.75508636E-01
  4.51086433E-01  2.87565745E-01  7.73354740E-06  2.78072137E-04 -2.57875654E-03
 -8.95087684E-03 -1.06058855E-01 -1.31517686E-01  1.09948660E+00  1.00000000E+00
  1.00000000E+00  5.69792516E-02  3.13207212E-01  7.60376742E-01  1.00000000E+00
  1.00000000E+00  1.00000000E+00  1.00000000E+00  7.01708743E-04  5.40299880E-03
  2.74729510E-02  1.03514580E-01  2.79586579E-01  4.51317241E-01  2.80626875E-01
  7.77446797E-06  3.00742072E-04 -2.80016549E-03 -9.89708505E-03 -1.14331114E-01
 -1.18162383E-01  1.09786885E+00  1.00000000E+00  1.00000000E+00  5.89056768E-02
  3.20461107E-01  7.53042062E-01  1.00000000E+00  1.00000000E+00  1.00000000E+00
  1.00000000E+00  7.11864434E-04  5.48520199E-03  2.79099296E-02  1.05133208E-01
  2.84002490E-01  4.51673946E-01  2.73208126E-01  7.69030046E-06  3.13484579E-04
 -2.96614853E-03 -1.08753543E-02 -1.20753817E-01 -1.06275264E-01  1.09597548E+00
  1.00000000E+00  1.00000000E+00  6.26791663E-02  3.33536566E-01  7.41239642E-01
  1.00000000E+00  1.00000000E+00  1.00000000E+00  1.00000000E+00  3.34987264E-02
  2.34800801E-01  8.13682958E-01  1.00000000E+00  1.00000000E+00  1.00000000E+00
  1.00000000E+00  3.34987264E-02  2.34800801E-01  8.13682958E-01  1.00000000E+00
  1.00000000E+00  1.00000000E+00  1.00000000E+00  3.34987264E-02  2.34800801E-01
  8.13682958E-01  1.00000000E+00  1.00000000E+00  1.00000000E+00  1.00000000E+00
Coordinates of each shell                  R   N=         126
 -2.64391394E-01  8.24719262E-01  3.33119727E-05 -2.64391394E-01  8.24719262E-01
  3.33119727E-05 -2.64391394E-01  8.24719262E-01  3.33119727E-05 -2.64391394E-01
  8.24719262E-01  3.33119727E-05 -2.64391394E-01  8.24719262E-01  3.33119727E-05
 -2.64391394E-01  8.24719262E-01  3.33119727E-05 -2.64391394E-01  8.24719262E-01
  3.33119727E-05 -2.64391394E-01  8.24719262E-01  3.33119727E-05 -2.64391394E-01
  8.24719262E-01  3.33119727E-05  2.01536518E+00 -2.84208147E-01  3.92992715E-04
  2.01536518E+00 -2.84208147E-01  3.92992715E-04  2.01536518E+00 -2.84208147E-01
  3.92992715E-04  2.01536518E+00 -2.84208147E-01  3.92992715E-04  2.01536518E+00
 -2.84208147E-01  3.92992715E-04  2.01536518E+00 -2.84208147E-01  3.92992715E-04
  2.01536518E+00 -2.84208147E-01  3.92992715E-04  2.01536518E+00 -2.84208147E-01
  3.92992715E-04  2.01536518E+00 -2.84208147E-01  3.92992715E-04 -2.15936170E+00
 -5.80428272E-01 -4.08877949E-04 -2.15936170E+00 -5.80428272E-01 -4.08877949E-04
 -2.15936170E+00 -5.80428272E-01 -4.08877949E-04 -2.15936170E+00 -5.80428272E-01
 -4.08877949E-04 -2.15936170E+00 -5.80428272E-01 -4.08877949E-04 -2.15936170E+00
 -5.80428272E-01 -4.08877949E-04 -2.15936170E+00 -5.80428272E-01 -4.08877949E-04
 -2.15936170E+00 -5.80428272E-01 -4.08877949E-04 -2.15936170E+00 -5.80428272E-01
 -4.08877949E-04  2.12225047E+00 -2.21544088E+00  3.15123344E-04  2.12225047E+00
 -2.21544088E+00  3.15123344E-04  2.12225047E+00 -2.21544088E+00  3.15123344E-04
  2.12225047E+00 -2.21544088E+00  3.15123344E-04  2.12225047E+00 -2.21544088E+00
  3.15123344E-04  3.66588639E+00  7.45958886E-01 -8.97192100E-05  3.66588639E+00
  7.45958886E-01 -8.97192100E-05  3.66588639E+00  7.45958886E-01 -8.97192100E-05
  3.66588639E+00  7.45958886E-01 -8.97192100E-05  3.66588639E+00  7.45958886E-01
 -8.97192100E-05 -3.15717544E-01  2.88717201E+00  1.67239698E-04 -3.15717544E-01
  2.88717201E+00  1.67239698E-04 -3.15717544E-01  2.88717201E+00  1.67239698E-04
 -3.15717544E-01  2.88717201E+00  1.67239698E-04 -3.15717544E-01  2.88717201E+00
  1.67239698E-04
Density Number of contracted shells        I               84
Density Number of primitive shells         I               84
Density Pure/Cartesian d shells            I                0
Density Pure/Cartesian f shells            I                0
Density Highest angular momentum           I                3
Density Largest degree of contraction      I                1
Density Shell types                        I   N=          84
           0           0           0           0           0          -1
          -2          -1          -2          -1          -2          -3
          -1          -2          -3          -1          -2          -3
           0           0           0           0           0          -1
          -2          -1          -2          -1          -2          -3
          -1          -2          -3          -1          -2          -3
           0           0           0           0           0          -1
          -2          -1          -2          -1          -2          -3
          -1          -2          -3          -1          -2          -3
           0           0          -1          -2          -1          -2
          -1          -2          -1          -2           0           0
          -1          -2          -1          -2          -1          -2
          -1          -2           0           0          -1          -2
          -1          -2          -1          -2          -1          -2
Density Number of primitives per shell     I   N=          84
           1           1           1           1           1           1
           1           1           1           1           1           1
           1           1           1           1           1           1
           1           1           1           1           1           1
           1           1           1           1           1           1
           1           1           1           1           1           1
           1           1           1           1           1           1
           1           1           1           1           1           1
           1           1           1           1           1           1
           1           1           1           1           1           1
           1           1           1           1           1           1
           1           1           1           1           1           1
           1           1           1           1           1           1
           1           1           1           1           1           1
Density Shell to atom map                  I   N=          84
           1           1           1           1           1           1
           1           1           1           1           1           1
           1           1           1           1           1           1
           2           2           2           2           2           2
           2           2           2           2           2           2
           2           2           2           2           2           2
           3           3           3           3           3           3
           3           3           3           3           3           3
           3           3           3           3           3           3
           4           4           4           4           4           4
           4           4           4           4           5           5
           5           5           5           5           5           5
           5           5           6           6           6           6
           6           6           6           6           6           6
Density Primitive exponents                R   N=          84
  1.33300000E+04  2.00000000E+03  4.56000000E+02  1.29420000E+02  4.21200000E+01
  1.68220457E+01  1.68220457E+01  4.73269226E+00  4.73269226E+00  1.06897221E+00
  1.06897221E+00  1.06897221E+00  3.10840122E-01  3.10840122E-01  3.10840122E-01
  8.70684558E-02  8.70684558E-02  8.70684558E-02  1.80920000E+04  2.71400000E+03
  6.18600000E+02  1.75460000E+02  5.71200000E+01  2.35240728E+01  2.35240728E+01
  6.69191931E+00  6.69191931E+00  1.55251192E+00  1.55251192E+00  1.55251192E+00
  4.45796600E-01  4.45796600E-01  4.45796600E-01  1.17237816E-01  1.17237816E-01
  1.17237816E-01  2.34400000E+04  3.51800000E+03  8.01600000E+02  2.27400000E+02
  7.40600000E+01  3.06515252E+01  3.06515252E+01  8.80144306E+00  8.80144306E+00
  2.20889185E+00  2.20889185E+00  2.20889185E+00  5.90645853E-01  5.90645853E-01
  5.90645853E-01  1.47152949E-01  1.47152949E-01  1.47152949E-01  2.60200000E+01
  3.92400000E+00  1.45400000E+00  1.45400000E+00  8.89200000E-01  8.89200000E-01
  2.62312790E-01  2.62312790E-01  5.94800000E-02  5.94800000E-02  2.60200000E+01
  3.92400000E+00  1.45400000E+00  1.45400000E+00  8.89200000E-01  8.89200000E-01
  2.62312790E-01  2.62312790E-01  5.94800000E-02  5.94800000E-02  2.60200000E+01
  3.92400000E+00  1.45400000E+00  1.45400000E+00  8.89200000E-01  8.89200000E-01
  2.62312790E-01  2.62312790E-01  5.94800000E-02  5.94800000E-02
Density Contraction coefficients           R   N=          84
  1.00000000E+00  1.00000000E+00  1.00000000E+00  1.00000000E+00  1.00000000E+00
  1.00000000E+00  1.00000000E+00  1.00000000E+00  1.00000000E+00  1.00000000E+00
  1.00000000E+00  1.00000000E+00  1.00000000E+00  1.00000000E+00  1.00000000E+00
  1.00000000E+00  1.00000000E+00  1.00000000E+00  1.00000000E+00  1.00000000E+00
  1.00000000E+00  1.00000000E+00  1.00000000E+00  1.00000000E+00  1.00000000E+00
  1.00000000E+00  1.00000000E+00  1.00000000E+00  1.00000000E+00  1.00000000E+00
  1.00000000E+00  1.00000000E+00  1.00000000E+00  1.00000000E+00  1.00000000E+00
  1.00000000E+00  1.00000000E+00  1.00000000E+00  1.00000000E+00  1.00000000E+00
  1.00000000E+00  1.00000000E+00  1.00000000E+00  1.00000000E+00  1.00000000E+00
  1.00000000E+00  1.00000000E+00  1.00000000E+00  1.00000000E+00  1.00000000E+00
  1.00000000E+00  1.00000000E+00  1.00000000E+00  1.00000000E+00  1.00000000E+00
  1.00000000E+00  1.00000000E+00  1.00000000E+00  1.00000000E+00  1.00000000E+00
  1.00000000E+00  1.00000000E+00  1.00000000E+00  1.00000000E+00  1.00000000E+00
  1.00000000E+00  1.00000000E+00  1.00000000E+00  1.00000000E+00  1.00000000E+00
  1.00000000E+00  1.00000000E+00  1.00000000E+00  1.00000000E+00  1.00000000E+00
  1.00000000E+00  1.00000000E+00  1.00000000E+00  1.00000000E+00  1.00000000E+00
  1.00000000E+00  1.00000000E+00  1.00000000E+00  1.00000000E+00
Density P(S=P) Contraction coefficients    R   N=          84
  0.00000000E+00  0.00000000E+00  0.00000000E+00  0.00000000E+00  0.00000000E+00
  1.00000000E+00  0.00000000E+00  1.00000000E+00  0.00000000E+00  1.00000000E+00
  0.00000000E+00  0.00000000E+00  1.00000000E+00  0.00000000E+00  0.00000000E+00
  1.00000000E+00  0.00000000E+00  0.00000000E+00  0.00000000E+00  0.00000000E+00
  0.00000000E+00  0.00000000E+00  0.00000000E+00  1.00000000E+00  0.00000000E+00
  1.00000000E+00  0.00000000E+00  1.00000000E+00  0.00000000E+00  0.00000000E+00
  1.00000000E+00  0.00000000E+00  0.00000000E+00  1.00000000E+00  0.00000000E+00
  0.00000000E+00  0.00000000E+00  0.00000000E+00  0.00000000E+00  0.00000000E+00
  0.00000000E+00  1.00000000E+00  0.00000000E+00  1.00000000E+00  0.00000000E+00
  1.00000000E+00  0.00000000E+00  0.00000000E+00  1.00000000E+00  0.00000000E+00
  0.00000000E+00  1.00000000E+00  0.00000000E+00  0.00000000E+00  0.00000000E+00
  0.00000000E+00  1.00000000E+00  0.00000000E+00  1.00000000E+00  0.00000000E+00
  1.00000000E+00  0.00000000E+00  1.00000000E+00  0.00000000E+00  0.00000000E+00
  0.00000000E+00  1.00000000E+00  0.00000000E+00  1.00000000E+00  0.00000000E+00
  1.00000000E+00  0.00000000E+00  1.00000000E+00  0.00000000E+00  0.00000000E+00
  0.00000000E+00  1.00000000E+00  0.00000000E+00  1.00000000E+00  0.00000000E+00
  1.00000000E+00  0.00000000E+00  1.00000000E+00  0.00000000E+00
Density Coordinates of each shell          R   N=         252
 -2.64391394E-01  8.24719262E-01  3.33119727E-05 -2.64391394E-01  8.24719262E-01
  3.33119727E-05 -2.64391394E-01  8.24719262E-01  3.33119727E-05 -2.64391394E-01
  8.24719262E-01  3.33119727E-05 -2.64391394E-01  8.24719262E-01  3.33119727E-05
 -2.64391394E-01  8.24719262E-01  3.33119727E-05 -2.64391394E-01  8.24719262E-01
  3.33119727E-05 -2.64391394E-01  8.24719262E-01  3.33119727E-05 -2.64391394E-01
  8.24719262E-01  3.33119727E-05 -2.64391394E-01  8.24719262E-01  3.33119727E-05
 -2.64391394E-01  8.24719262E-01  3.33119727E-05 -2.64391394E-01  8.24719262E-01
  3.33119727E-05 -2.64391394E-01  8.24719262E-01  3.33119727E-05 -2.64391394E-01
  8.24719262E-01  3.33119727E-05 -2.64391394E-01  8.24719262E-01  3.33119727E-05
 -2.64391394E-01  8.24719262E-01  3.33119727E-05 -2.64391394E-01  8.24719262E-01
  3.33119727E-05 -2.64391394E-01  8.24719262E-01  3.33119727E-05  2.01536518E+00
 -2.84208147E-01  3.92992715E-04  2.01536518E+00 -2.84208147E-01  3.92992715E-04
  2.01536518E+00 -2.84208147E-01  3.92992715E-04  2.01536518E+00 -2.84208147E-01
  3.92992715E-04  2.01536518E+00 -2.84208147E-01  3.92992715E-04  2.01536518E+00
 -2.84208147E-01  3.92992715E-04  2.01536518E+00 -2.84208147E-01  3.92992715E-04
  2.01536518E+00 -2.84208147E-01  3.92992715E-04  2.01536518E+00 -2.84208147E-01
  3.92992715E-04  2.01536518E+00 -2.84208147E-01  3.92992715E-04  2.01536518E+00
 -2.84208147E-01  3.92992715E-04  2.01536518E+00 -2.84208147E-01  3.92992715E-04
  2.01536518E+00 -2.84208147E-01  3.92992715E-04  2.01536518E+00 -2.84208147E-01
  3.92992715E-04  2.01536518E+00 -2.84208147E-01  3.92992715E-04  2.01536518E+00
 -2.84208147E-01  3.92992715E-04  2.01536518E+00 -2.84208147E-01  3.92992715E-04
  2.01536518E+00 -2.84208147E-01  3.92992715E-04 -2.15936170E+00 -5.80428272E-01
 -4.08877949E-04 -2.15936170E+00 -5.80428272E-01 -4.08877949E-04 -2.15936170E+00
 -5.80428272E-01 -4.08877949E-04 -2.15936170E+00 -5.80428272E-01 -4.08877949E-04
 -2.15936170E+00 -5.80428272E-01 -4.08877949E-04 -2.15936170E+00 -5.80428272E-01
 -4.08877949E-04 -2.15936170E+00 -5.80428272E-01 -4.08877949E-04 -2.15936170E+00
 -5.80428272E-01 -4.08877949E-04 -2.15936170E+00 -5.80428272E-01 -4.08877949E-04
 -2.15936170E+00 -5.80428272E-01 -4.08877949E-04 -2.15936170E+00 -5.80428272E-01
 -4.08877949E-04 -2.15936170E+00 -5.80428272E-01 -4.08877949E-04 -2.15936170E+00
 -5.80428272E-01 -4.08877949E-04 -2.15936170E+00 -5.80428272E-01 -4.08877949E-04
 -2.15936170E+00 -5.80428272E-01 -4.08877949E-04 -2.15936170E+00 -5.80428272E-01
 -4.08877949E-04 -2.15936170E+00 -5.80428272E-01 -4.08877949E-04 -2.15936170E+00
 -5.80428272E-01 -4.08877949E-04  2.12225047E+00 -2.21544088E+00  3.15123344E-04
  2.12225047E+00 -2.21544088E+00  3.15123344E-04  2.12225047E+00 -2.21544088E+00
  3.15123344E-04  2.12225047E+00 -2.21544088E+00  3.15123344E-04  2.12225047E+00
 -2.21544088E+00  3.15123344E-04  2.12225047E+00 -2.21544088E+00  3.15123344E-04
  2.12225047E+00 -2.21544088E+00  3.15123344E-04  2.12225047E+00 -2.21544088E+00
  3.15123344E-04  2.12225047E+00 -2.21544088E+00  3.15123344E-04  2.12225047E+00
 -2.21544088E+00  3.15123344E-04  3.66588639E+00  7.45958886E-01 -8.97192100E-05
  3.66588639E+00  7.45958886E-01 -8.97192100E-05  3.66588639E+00  7.45958886E-01
 -8.97192100E-05  3.66588639E+00  7.45958886E-01 -8.97192100E-05  3.66588639E+00
  7.45958886E-01 -8.97192100E-05  3.66588639E+00  7.45958886E-01 -8.97192100E-05
  3.66588639E+00  7.45958886E-01 -8.97192100E-05  3.66588639E+00  7.45958886E-01
 -8.97192100E-05  3.66588639E+00  7.45958886E-01 -8.97192100E-05  3.66588639E+00
  7.45958886E-01 -8.97192100E-05 -3.15717544E-01  2.88717201E+00  1.67239698E-04
 -3.15717544E-01  2.88717201E+00  1.67239698E-04 -3.15717544E-01  2.88717201E+00
  1.67239698E-04 -3.15717544E-01  2.88717201E+00  1.67239698E-04 -3.15717544E-01
  2.88717201E+00  1.67239698E-04 -3.15717544E-01  2.88717201E+00  1.67239698E-04
 -3.15717544E-01  2.88717201E+00  1.67239698E-04 -3.15717544E-01  2.88717201E+00
  1.67239698E-04 -3.15717544E-01  2.88717201E+00  1.67239698E-04 -3.15717544E-01
  2.88717201E+00  1.67239698E-04
Constraint Structure                       R   N=          18
 -2.80446696E-01  7.35880143E-01 -1.51178091E-05  2.03313745E+00 -3.04100398E-01
  1.13383568E-04 -2.26580242E+00 -4.61796155E-01 -1.43619186E-04  2.23366952E+00
 -2.20464521E+00  1.73854804E-04  3.59611482E+00  7.87938319E-01  2.91017824E-04
 -2.52641266E-01  2.82449617E+00 -9.44863066E-06
Num ILSW                                   I              100
ILSW                                       I   N=         100
           0           0           0           0           2           0
           0           0           0           0       20419          -1
           5           0           0           0           0           0
           0           0           1           0           1           0
           1           1           0           0           0           0
           0           0      100000           0          -1           0
           0           0           0           0           0           0
           0           0           0           1           0           0
           0           0           1           0           0           0
           0           0           4          40           0           0
           0           0          40           0           0           0
           0           0           0           0           0           0
           0           0           0           0           0           0
           0           0           0           0           0           0
           0           0           0           0           0           0
           0           0           0           0           0           0
           0           0           0           0
Num RLSW                                   I               40
RLSW                                       R   N=          40
  1.00000000E+00  1.00000000E+00  1.00000000E+00  8.10000000E-01  1.00000000E+00
  0.00000000E+00  3.30000000E-01  1.90000000E-01  0.00000000E+00  4.60000000E-01
  0.00000000E+00  3.30000000E-01  1.90000000E-01  0.00000000E+00  4.60000000E-01
  0.00000000E+00  0.00000000E+00  1.00000000E+00  0.00000000E+00  0.00000000E+00
  0.00000000E+00  0.00000000E+00  1.00000000E+00  0.00000000E+00  0.00000000E+00
  0.00000000E+00  0.00000000E+00  1.00000000E+00  0.00000000E+00  0.00000000E+00
  0.00000000E+00  0.00000000E+00  0.00000000E+00  0.00000000E+00  0.00000000E+00
  0.00000000E+00  0.00000000E+00  0.00000000E+00  1.00000000E+00  1.00000000E+00
MxBond                                     I                3
NBond                                      I   N=           6
           3           3           1           1           1           1
IBond                                      I   N=          18
           2           3           6           1           4           5
           1           0           0           2           0           0
           2           0           0           1           0           0
RBond                                      R   N=          18
  1.41000000E+00  2.00000000E+00  1.00000000E+00  1.41000000E+00  1.00000000E+00
  1.00000000E+00  2.00000000E+00  0.00000000E+00  0.00000000E+00  1.00000000E+00
  0.00000000E+00  0.00000000E+00  1.00000000E+00  0.00000000E+00  0.00000000E+00
  1.00000000E+00  0.00000000E+00  0.00000000E+00
Virial Ratio                               R      2.006908469571749E+00
SCF Energy                                 R     -1.698603999342769E+02
CIS Energy                                 R     -1.695722202600373E+02
Total Energy                               R     -1.695722202600373E+02
Post-SCF wavefunction norm                 R      1.000000000000000E+00
RMS Force                                  R      1.780160925960391E-04
RMS Density                                R      2.521597106314248E-09
External E-field                           R   N=          35
  0.00000000E+00  0.00000000E+00  0.00000000E+00  0.00000000E+00  0.00000000E+00
  0.00000000E+00  0.00000000E+00  0.00000000E+00  0.00000000E+00  0.00000000E+00
  0.00000000E+00  0.00000000E+00  0.00000000E+00  0.00000000E+00  0.00000000E+00
  0.00000000E+00  0.00000000E+00  0.00000000E+00  0.00000000E+00  0.00000000E+00
  0.00000000E+00  0.00000000E+00  0.00000000E+00  0.00000000E+00  0.00000000E+00
  0.00000000E+00  0.00000000E+00  0.00000000E+00  0.00000000E+00  0.00000000E+00
  0.00000000E+00  0.00000000E+00  0.00000000E+00  0.00000000E+00  0.00000000E+00
IOpCl                                      I                0
IROHF                                      I                0
Alpha Orbital Energies                     R   N=          96
 -1.92018490E+01 -1.44401110E+01 -1.03775808E+01 -1.12433872E+00 -9.90518941E-01
 -7.09849343E-01 -6.27865452E-01 -5.61632875E-01 -4.94667711E-01 -4.85636887E-01
 -3.44762581E-01 -3.41842367E-01  1.66880761E-02  3.30733405E-02  4.21299838E-02
  4.35219148E-02  7.80510865E-02  8.19357937E-02  9.57441003E-02  1.28575588E-01
  1.41768565E-01  1.50241273E-01  1.56770926E-01  1.78523190E-01  2.06748966E-01
  2.10417128E-01  2.14314396E-01  2.58842412E-01  2.71101742E-01  2.77874363E-01
  2.97228881E-01  3.51968918E-01  3.58227662E-01  3.62510370E-01  4.00549327E-01
  4.39489924E-01  4.51450180E-01  4.83625761E-01  4.93400115E-01  5.11831050E-01
  5.27664858E-01  5.45175244E-01  5.58271930E-01  5.75552401E-01  5.84883389E-01
  5.95062964E-01  6.67451126E-01  6.88038644E-01  7.21899891E-01  7.47454350E-01
  8.09705047E-01  8.36801014E-01  8.65597359E-01  8.76550049E-01  9.18036830E-01
  1.05099671E+00  1.06004417E+00  1.06834046E+00  1.12281579E+00  1.17199193E+00
  1.22445445E+00  1.25286319E+00  1.30246479E+00  1.36721435E+00  1.43151771E+00
  1.48186071E+00  1.50608944E+00  1.65410148E+00  1.66817198E+00  1.70870943E+00
  1.76247489E+00  1.79740889E+00  1.82350636E+00  1.86492741E+00  1.97899442E+00
  2.03616907E+00  2.04245381E+00  2.09909667E+00  2.15088907E+00  2.18631462E+00
  2.26043779E+00  2.28182616E+00  2.43801022E+00  2.50576644E+00  2.54967568E+00
  2.64064980E+00  2.70159652E+00  2.86647776E+00  2.99239863E+00  3.14932535E+00
  3.25330407E+00  3.40111001E+00  3.45456721E+00  3.45706383E+00  3.74325068E+00
  3.76592443E+00
Alpha MO coefficients                      R   N=        9216
  1.58091381E-04  9.63090254E-04  1.72303166E-02  4.42721831E-03 -7.01301282E-04
 -5.90934735E-04 -9.47267171E-08 -1.11700578E-02 -1.17008116E-02 -2.98063041E-06
 -7.86907418E-04  1.57248504E-04 -1.05279615E-07 -4.04057034E-04  1.10859179E-07
 -2.08226509E-08 -3.40069474E-04 -5.23217207E-04 -2.97251126E-03  1.57539683E-06
  2.02602838E-06  2.15721775E-03  1.00634409E-02  1.52578182E-05 -5.55649741E-05
  3.27602415E-03  5.46098456E-03  1.57146435E-04 -1.08008562E-05  7.02815283E-08
  1.88334521E-03 -1.21068311E-03 -1.10043079E-07 -2.23551374E-03  6.00623595E-04
 -4.46842323E-07 -6.00451631E-05 -7.44418548E-08  3.23124814E-08 -3.69261393E-04
 -5.12696345E-05  1.26663124E-03 -4.50373106E-07 -1.84876371E-07  3.13564567E-05
  9.79972272E-04  9.96861002E-01  2.61015553E-02 -3.03872837E-02 -1.49986894E-02
  1.50982194E-03  1.09596704E-03  4.06037029E-07 -7.26465325E-03 -4.87695530E-03
 -1.81932610E-06 -3.32980151E-03 -1.95741689E-03 -8.21799501E-07  5.90906648E-05
 -7.03554321E-09  4.04712892E-08  8.33227289E-06  1.40957042E-04  2.07267555E-04
 -2.00035166E-07 -2.80117583E-07 -3.62999001E-04 -1.16846982E-03  1.01482092E-04