 Entering Gaussian System, Link 0=g09
 Input=td1-opt.com
 Output=td1-opt.log
 Initial command:
 /home/diegoa/progs/g09/l1.exe /home/diegoa/g09scratch/Gau-25333.inp -scrdir=/home/diegoa/g09scratch/
 Default is to use a total of   4 processors:
                                4 via shared-memory
                                1 via Linda
 Entering Link 1 = /home/diegoa/progs/g09/l1.exe PID=     25335.
  
 Copyright (c) 1988,1990,1992,1993,1995,1998,2003,2009, Gaussian, Inc.
                  All Rights Reserved.
  
 This is part of the Gaussian(R) 09 program.  It is based on
 the Gaussian(R) 03 system (copyright 2003, Gaussian, Inc.),
 the Gaussian(R) 98 system (copyright 1998, Gaussian, Inc.),
 the Gaussian(R) 94 system (copyright 1995, Gaussian, Inc.),
 the Gaussian 92(TM) system (copyright 1992, Gaussian, Inc.),
 the Gaussian 90(TM) system (copyright 1990, Gaussian, Inc.),
 the Gaussian 88(TM) system (copyright 1988, Gaussian, Inc.),
 the Gaussian 86(TM) system (copyright 1986, Carnegie Mellon
 University), and the Gaussian 82(TM) system (copyright 1983,
 Carnegie Mellon University). Gaussian is a federally registered
 trademark of Gaussian, Inc.
  
 This software contains proprietary and confidential information,
 including trade secrets, belonging to Gaussian, Inc.
  
 This software is provided under written license and may be
 used, copied, transmitted, or stored only in accord with that
 written license.
  
 The following legend is applicable only to US Government
 contracts under FAR:
  
                    RESTRICTED RIGHTS LEGEND
  
 Use, reproduction and disclosure by the US Government is
 subject to restrictions as set forth in subparagraphs (a)
 and (c) of the Commercial Computer Software - Restricted
 Rights clause in FAR 52.227-19.
  
 Gaussian, Inc.
 340 Quinnipiac St., Bldg. 40, Wallingford CT 06492
  
  
 ---------------------------------------------------------------
 Warning -- This program may not be used in any manner that
 competes with the business of Gaussian, Inc. or will provide
 assistance to any competitor of Gaussian, Inc.  The licensee
 of this program is prohibited from giving any competitor of
 Gaussian, Inc. access to this program.  By using this program,
 the user acknowledges that Gaussian, Inc. is engaged in the
 business of creating and licensing software in the field of
 computational chemistry and represents and warrants to the
 licensee that it is not a competitor of Gaussian, Inc. and that
 it will not use this program in any manner prohibited above.
 ---------------------------------------------------------------
  

 Cite this work as:
 Gaussian 09, Revision A.01,
 M. J. Frisch, G. W. Trucks, H. B. Schlegel, G. E. Scuseria, 
 M. A. Robb, J. R. Cheeseman, G. Scalmani, V. Barone, B. Mennucci, 
 G. A. Petersson, H. Nakatsuji, M. Caricato, X. Li, H. P. Hratchian, 
 A. F. Izmaylov, J. Bloino, G. Zheng, J. L. Sonnenberg, M. Hada, 
 M. Ehara, K. Toyota, R. Fukuda, J. Hasegawa, M. Ishida, T. Nakajima, 
 Y. Honda, O. Kitao, H. Nakai, T. Vreven, J. A. Montgomery, Jr., 
 J. E. Peralta, F. Ogliaro, M. Bearpark, J. J. Heyd, E. Brothers, 
 K. N. Kudin, V. N. Staroverov, R. Kobayashi, J. Normand, 
 K. Raghavachari, A. Rendell, J. C. Burant, S. S. Iyengar, J. Tomasi, 
 M. Cossi, N. Rega, J. M. Millam, M. Klene, J. E. Knox, J. B. Cross, 
 V. Bakken, C. Adamo, J. Jaramillo, R. Gomperts, R. E. Stratmann, 
 O. Yazyev, A. J. Austin, R. Cammi, C. Pomelli, J. W. Ochterski, 
 R. L. Martin, K. Morokuma, V. G. Zakrzewski, G. A. Voth, 
 P. Salvador, J. J. Dannenberg, S. Dapprich, A. D. Daniels, 
 O. Farkas, J. B. Foresman, J. V. Ortiz, J. Cioslowski, 
 and D. J. Fox, Gaussian, Inc., Wallingford CT, 2009.
 
 ******************************************
 Gaussian 09:  EM64L-G09RevA.01  8-May-2009
                28-Oct-2019 
 ******************************************
 %chk=td1-opt.chk
 %NProcShared=4
 Will use up to    4 processors via shared memory.
 Default route:  MP2=Direct MaxDisk=1000GB DenFit
 ----------------------------------------------------------------------
 # cam-b3lyp/aug-cc-pvdz opt nosymm td(root=1,nstates=20) SCRF=PCM int(
 grid=ultrafine)
 ----------------------------------------------------------------------
 1/14=-1,18=20,19=15,26=3,38=1/1,3;
 2/9=110,12=2,15=1,17=6,18=5,40=1/2;
 3/5=16,7=10,11=2,16=1,25=1,30=1,70=2201,71=1,72=1,74=-40,75=-5,82=47/1,2,8,3;
 4//1;
 5/5=2,38=5/2;
 8/6=1,10=1,107=1,108=20/1;
 9/8=1,15=2,41=20,42=1/14;
 10/5=4,31=1/2;
 6/7=2,8=2,9=2,10=2/1;
 7/12=6,13=5,14=1,30=1/1,2,3,16;
 1/14=-1,18=20,19=15/3(2);
 2/9=110,15=1/2;
 99//99;
 2/9=110,15=1/2;
 3/5=16,7=10,11=2,16=1,25=1,30=1,70=2205,71=1,74=-40,75=-5,82=47/1,2,8,3;
 4/5=5,16=3/1;
 5/5=2,38=5/2;
 8/6=1,10=1,107=1,108=20/1;
 9/8=1,15=2,41=20,42=1,49=4/14;
 10/5=4,31=1/2;
 7/12=6,13=5,14=1,30=1/1,2,3,16;
 1/14=-1,18=20,19=15/3(-8);
 2/9=110,15=1/2;
 6/7=2,8=2,9=2,10=2/1;
 99//99;
 -----
 Title
 -----
 Symbolic Z-matrix:
 Charge =  0 Multiplicity = 1
 6                    -0.14841   0.38941  -0.00001 
 7                     1.07589  -0.16092   0.00006 
 8                    -1.19901  -0.24437  -0.00008 
 1                     1.18201  -1.16665   0.00009 
 1                     1.90298   0.41696   0.00015 
 1                    -0.13369   1.49466  -0.00001 
 

 GradGradGradGradGradGradGradGradGradGradGradGradGradGradGradGradGradGrad
 Berny optimization.
 Initialization pass.
                           ----------------------------
                           !    Initial Parameters    !
                           ! (Angstroms and Degrees)  !
 --------------------------                            --------------------------
 ! Name  Definition              Value          Derivative Info.                !
 --------------------------------------------------------------------------------
 ! R1    R(1,2)                  1.3423         estimate D2E/DX2                !
 ! R2    R(1,3)                  1.227          estimate D2E/DX2                !
 ! R3    R(1,6)                  1.1053         estimate D2E/DX2                !
 ! R4    R(2,4)                  1.0113         estimate D2E/DX2                !
 ! R5    R(2,5)                  1.009          estimate D2E/DX2                !
 ! A1    A(2,1,3)              124.6949         estimate D2E/DX2                !
 ! A2    A(2,1,6)              113.4417         estimate D2E/DX2                !
 ! A3    A(3,1,6)              121.8634         estimate D2E/DX2                !
 ! A4    A(1,2,4)              120.2276         estimate D2E/DX2                !
 ! A5    A(1,2,5)              120.8539         estimate D2E/DX2                !
 ! A6    A(4,2,5)              118.9185         estimate D2E/DX2                !
 ! D1    D(3,1,2,4)             -0.0023         estimate D2E/DX2                !
 ! D2    D(3,1,2,5)           -179.9974         estimate D2E/DX2                !
 ! D3    D(6,1,2,4)            179.9982         estimate D2E/DX2                !
 ! D4    D(6,1,2,5)              0.0031         estimate D2E/DX2                !
 --------------------------------------------------------------------------------
 Trust Radius=3.00D-01 FncErr=1.00D-07 GrdErr=1.00D-06
 Number of steps in this run=  25 maximum allowed number of steps= 100.
 GradGradGradGradGradGradGradGradGradGradGradGradGradGradGradGradGradGrad

                          Input orientation:                          
 ---------------------------------------------------------------------
 Center     Atomic      Atomic             Coordinates (Angstroms)
 Number     Number       Type             X           Y           Z
 ---------------------------------------------------------------------
      1          6           0       -0.148406    0.389411   -0.000008
      2          7           0        1.075890   -0.160923    0.000060
      3          8           0       -1.199011   -0.244372   -0.000076
      4          1           0        1.182007   -1.166648    0.000092
      5          1           0        1.902982    0.416959    0.000154
      6          1           0       -0.133692    1.494659   -0.000005
 ---------------------------------------------------------------------
                    Distance matrix (angstroms):
                    1          2          3          4          5
     1  C    0.000000
     2  N    1.342300   0.000000
     3  O    1.226969   2.276431   0.000000
     4  H    2.047271   1.011308   2.553398   0.000000
     5  H    2.051573   1.008974   3.171706   1.740005   0.000000
     6  H    1.105346   2.050376   2.039395   2.968774   2.304231
                    6
     6  H    0.000000
 Symmetry turned off by external request.
 Stoichiometry    CH3NO
 Framework group  C1[X(CH3NO)]
 Deg. of freedom    12
 Full point group                 C1      NOp   1
 Rotational constants (GHZ):     73.1415518     11.3903967      9.8555789
 Standard basis: Aug-CC-pVDZ (5D, 7F)
 Integral buffers will be    131072 words long.
 Raffenetti 2 integral format.
 Two-electron integral symmetry is turned off.
    96 basis functions,   162 primitive gaussians,   102 cartesian basis functions
    12 alpha electrons       12 beta electrons
       nuclear repulsion energy        71.1695258840 Hartrees.
 NAtoms=    6 NActive=    6 NUniq=    6 SFac= 7.50D-01 NAtFMM=   80 NAOKFM=F Big=F
 Standard density basis: Auto (5D, 7F)
   327 Density fitting functions
 ------------------------------------------------------------------------------
 Polarizable Continuum Model (PCM)
 =================================
 Model                : PCM.
 Atomic radii         : UFF (Universal Force Field).
 Polarization charges : Total charges.
 Charge compensation  : None.
 Solution method      : Matrix inversion.
 Cavity type          : Scaled VdW (van der Waals Surface) (Alpha=1.100).
 Cavity algorithm     : GePol (No added spheres)
                        Default sphere list used, NSphG=    6.
                        Lebedev-Laikov grids with approx.  5.0 points / Ang**2.
                        Smoothing algorithm: Karplus/York (Gamma=1.0000).
                        Polarization charges: spherical gaussians, with
                                              point-specific exponents (IZeta= 3).
                        Self-potential: point-specific (ISelfS= 7).
                        Self-field    : sphere-specific E.n sum rule (ISelfD= 2).
 1st derivatives      : Analytical E(r).r(x)/FMM algorithm (CHGder, D1EAlg=3).
                        Cavity 1st derivative terms included.
 Solvent              : Water, Eps=  78.355300 Eps(inf)=   1.777849
 ------------------------------------------------------------------------------
 Spheres list:
 ISph  on   Nord    Re0     Alpha      Xe            Ye            Ze
    1   C      1    1.926   1.100     -0.148406      0.389411     -0.000008
    2   N      2    1.830   1.100      1.075890     -0.160923      0.000060
    3   O      3    1.750   1.100     -1.199011     -0.244372     -0.000076
    4   H      4    1.443   1.100      1.182007     -1.166648      0.000092
    5   H      5    1.443   1.100      1.902982      0.416959      0.000154
    6   H      6    1.443   1.100     -0.133692      1.494659     -0.000005
 ------------------------------------------------------------------------------
 One-electron integrals computed using PRISM.
 NBasis=    96 RedAO= T  NBF=    96
 NBsUse=    96 1.00D-06 NBFU=    96
 Harris functional with IExCor=20419 diagonalized for initial guess.
 ExpMin= 2.97D-02 ExpMax= 1.17D+04 ExpMxC= 4.01D+02 IAcc=3 IRadAn=         5 AccDes= 0.00D+00
 HarFok:  IExCor=20419 AccDes= 0.00D+00 IRadAn=         5 IDoV= 1
 ScaDFX=  1.000000  1.000000  1.000000  1.000000
 FoFCou: FMM=F IPFlag=           0 FMFlag=      100000 FMFlg1=           0
         NFxFlg=           0 DoJE=T BraDBF=F KetDBF=T FulRan=T
         Omega=  0.000000  0.000000  1.000000  0.000000  0.000000 ICntrl=     500 IOpCl=  0
         NMat0=    1 NMatS0=    1 NMatT0=    0 NMatD0=    1 NMtDS0=    0 NMtDT0=    0
         I1Cent=           4 NGrid=           0.
 Symmetry not used in FoFCou.
 Requested convergence on RMS density matrix=1.00D-08 within 128 cycles.
 Requested convergence on MAX density matrix=1.00D-06.
 Requested convergence on             energy=1.00D-06.
 No special actions if energy rises.
 FoFJK:  IHMeth= 1 ICntrl=     0 DoSepK=T KAlg= 1 I1Cent= 0 FoldK=F
 FoFJK:  IHMeth= 1 ICntrl=     0 DoSepK=T KAlg= 1 I1Cent= 0 FoldK=F
 FoFJK:  IHMeth= 1 ICntrl=     0 DoSepK=T KAlg= 1 I1Cent= 0 FoldK=F
 FoFJK:  IHMeth= 1 ICntrl=     0 DoSepK=T KAlg= 1 I1Cent= 0 FoldK=F
 FoFJK:  IHMeth= 1 ICntrl=     0 DoSepK=T KAlg= 1 I1Cent= 0 FoldK=F
 FoFJK:  IHMeth= 1 ICntrl=     0 DoSepK=T KAlg= 1 I1Cent= 0 FoldK=F
 FoFJK:  IHMeth= 1 ICntrl=     0 DoSepK=T KAlg= 1 I1Cent= 0 FoldK=F
 FoFJK:  IHMeth= 1 ICntrl=     0 DoSepK=T KAlg= 1 I1Cent= 0 FoldK=F
 FoFJK:  IHMeth= 1 ICntrl=     0 DoSepK=T KAlg= 1 I1Cent= 0 FoldK=F
 FoFJK:  IHMeth= 1 ICntrl=     0 DoSepK=T KAlg= 1 I1Cent= 0 FoldK=F
 FoFJK:  IHMeth= 1 ICntrl=     0 DoSepK=T KAlg= 1 I1Cent= 0 FoldK=F
 Error on total polarization charges =  0.01050
 SCF Done:  E(RCAM-B3LYP) =  -169.864201704     A.U. after   11 cycles
             Convg  =    0.4600D-08             -V/T =  2.0064
 ExpMin= 2.97D-02 ExpMax= 1.17D+04 ExpMxC= 4.01D+02 IAcc=3 IRadAn=         5 AccDes= 0.00D+00
 HarFok:  IExCor=  205 AccDes= 0.00D+00 IRadAn=         5 IDoV=-2
 ScaDFX=  1.000000  1.000000  1.000000  1.000000
 Range of M.O.s used for correlation:     4    96
 NBasis=    96 NAE=    12 NBE=    12 NFC=     3 NFV=     0
 NROrb=     93 NOA=     9 NOB=     9 NVA=    84 NVB=    84

 **** Warning!!: The largest alpha MO coefficient is  0.18832976D+02

 NEqPCM:  Using equilibrium solvation (IEInf=0, Eps=  78.3553, EpsInf=   1.7778)
    80 initial guesses have been made.
 Convergence on wavefunction:    0.000001000000000
 Iteration     1 Dimension    80 NMult    80
 CISAX will form    80 AO SS matrices at one time.
 FoFJK:  IHMeth= 1 ICntrl=     0 DoSepK=T KAlg= 1 I1Cent= 0 FoldK=F
 FoFJK:  IHMeth= 1 ICntrl=     0 DoSepK=T KAlg= 1 I1Cent= 0 FoldK=F
 New state      1 was old state      6
 New state      2 was old state      1
 New state      3 was old state      2
 New state      4 was old state      3
 New state      6 was old state      4
 New state      8 was old state     11
 New state     10 was old state      8
 New state     11 was old state     10
 New state     13 was old state     14
 New state     14 was old state     13
 No map to state     17
 New state     20 was old state     17
 Iteration     2 Dimension   120 NMult   120
 FoFJK:  IHMeth= 1 ICntrl=     0 DoSepK=T KAlg= 1 I1Cent= 0 FoldK=F
 FoFJK:  IHMeth= 1 ICntrl=     0 DoSepK=T KAlg= 1 I1Cent= 0 FoldK=F
 New state      7 was old state      8
 New state      8 was old state      7
 New state     13 was old state     14
 New state     14 was old state     13
 New state     16 was old state     17
 New state     17 was old state     16
 New state     19 was old state     20
 New state     20 was old state     19
 Iteration     3 Dimension   160 NMult   160
 FoFJK:  IHMeth= 1 ICntrl=     0 DoSepK=T KAlg= 1 I1Cent= 0 FoldK=F
 FoFJK:  IHMeth= 1 ICntrl=     0 DoSepK=T KAlg= 1 I1Cent= 0 FoldK=F
 Iteration     4 Dimension   200 NMult   200
 FoFJK:  IHMeth= 1 ICntrl=     0 DoSepK=T KAlg= 1 I1Cent= 0 FoldK=F
 FoFJK:  IHMeth= 1 ICntrl=     0 DoSepK=T KAlg= 1 I1Cent= 0 FoldK=F
 Iteration     5 Dimension   240 NMult   240
 FoFJK:  IHMeth= 1 ICntrl=     0 DoSepK=T KAlg= 1 I1Cent= 0 FoldK=F
 FoFJK:  IHMeth= 1 ICntrl=     0 DoSepK=T KAlg= 1 I1Cent= 0 FoldK=F
 Iteration     6 Dimension   280 NMult   280
 FoFJK:  IHMeth= 1 ICntrl=     0 DoSepK=T KAlg= 1 I1Cent= 0 FoldK=F
 FoFJK:  IHMeth= 1 ICntrl=     0 DoSepK=T KAlg= 1 I1Cent= 0 FoldK=F
 Iteration     7 Dimension   306 NMult   306
 FoFJK:  IHMeth= 1 ICntrl=     0 DoSepK=T KAlg= 1 I1Cent= 0 FoldK=F
 FoFJK:  IHMeth= 1 ICntrl=     0 DoSepK=T KAlg= 1 I1Cent= 0 FoldK=F
 Iteration     8 Dimension   310 NMult   310
 FoFJK:  IHMeth= 1 ICntrl=     0 DoSepK=T KAlg= 1 I1Cent= 0 FoldK=F
 FoFJK:  IHMeth= 1 ICntrl=     0 DoSepK=T KAlg= 1 I1Cent= 0 FoldK=F
 ***********************************************************************
 Excited states from <AA,BB:AA,BB> singles matrix:
 ***********************************************************************
 
 Ground to excited state transition electric dipole moments (Au):
       state          X           Y           Z        Dip. S.      Osc.
         1         0.0000      0.0000      0.0822      0.0068      0.0010
         2         0.0464      0.1473      0.0001      0.0238      0.0041
         3        -0.0001      0.0000      0.2981      0.0889      0.0154
         4         1.3664      0.0327      0.0001      1.8682      0.3332
         5        -0.3274      0.8521      0.0000      0.8333      0.1562
         6         0.0000     -0.0001      0.0624      0.0039      0.0007
         7         0.7165      0.2569     -0.0001      0.5794      0.1134
         8        -0.0001     -0.0001     -0.4373      0.1912      0.0377
         9         0.0000      0.0000      0.1922      0.0369      0.0076
        10        -0.1655     -0.0543      0.0000      0.0303      0.0064
        11         0.1199     -0.1249      0.0000      0.0300      0.0066
        12         0.0000      0.0000      0.1840      0.0338      0.0076
        13        -0.0770     -0.0200     -0.0001      0.0063      0.0014
        14         0.0000      0.0000     -0.2236      0.0500      0.0115
        15         0.1673      0.0592      0.0000      0.0315      0.0077
        16         0.0000      0.0000     -0.0739      0.0055      0.0014
        17         0.0000      0.0000     -0.1805      0.0326      0.0082
        18        -0.0001     -0.0002     -0.1090      0.0119      0.0030
        19        -0.1834     -0.3992     -0.0001      0.1930      0.0497
        20        -0.0001     -0.0002      0.1933      0.0374      0.0096
 Ground to excited state transition velocity dipole moments (Au):
       state          X           Y           Z        Dip. S.      Osc.
         1         0.0000      0.0000     -0.0210      0.0004      0.0014
         2        -0.0100     -0.0389      0.0000      0.0016      0.0042
         3         0.0000      0.0000     -0.0748      0.0056      0.0144
         4        -0.3597     -0.0077      0.0000      0.1295      0.3227
         5         0.0919     -0.2362      0.0000      0.0642      0.1522
         6         0.0000      0.0000     -0.0185      0.0003      0.0008
         7        -0.2085     -0.0741      0.0000      0.0490      0.1112
         8         0.0000      0.0000      0.1255      0.0158      0.0356
         9         0.0000      0.0000     -0.0607      0.0037      0.0080
        10         0.0437      0.0149      0.0000      0.0021      0.0044
        11        -0.0375      0.0398      0.0000      0.0030      0.0060
        12         0.0000      0.0000     -0.0591      0.0035      0.0070
        13         0.0160      0.0060      0.0000      0.0003      0.0006
        14         0.0000      0.0000      0.0774      0.0060      0.0116
        15        -0.0606     -0.0149      0.0000      0.0039      0.0071
        16         0.0000      0.0000      0.0288      0.0008      0.0015
        17         0.0000      0.0000      0.0719      0.0052      0.0092
        18         0.0000      0.0001      0.0307      0.0009      0.0016
        19         0.0672      0.1554      0.0000      0.0287      0.0495
        20         0.0000      0.0001     -0.0730      0.0053      0.0092
 Ground to excited state transition magnetic dipole moments (Au):
       state          X           Y           Z
         1        -0.9740     -0.3873     -0.0001
         2         0.0000      0.0001      0.5412
         3         0.0064      0.5643     -0.0001
         4         0.0000      0.0000      0.2587
         5         0.0000      0.0000     -0.1128
         6         0.0418     -0.0090      0.0000
         7         0.0000      0.0001      0.5025
         8        -0.0404      0.3354     -0.0001
         9        -0.0626      0.1138      0.0000
        10         0.0000      0.0000      0.0845
        11         0.0000     -0.0001     -0.0164
        12         0.1077     -0.2556      0.0000
        13         0.0000     -0.0001      0.1960
        14        -0.0774     -0.5400     -0.0001
        15         0.0000      0.0000     -0.3668
        16        -0.9732      0.8013      0.0000
        17         0.2623     -0.6644      0.0000
        18         0.1768     -0.5239      0.0000
        19        -0.0001      0.0004     -0.0263
        20         0.0035     -0.1046      0.0000
 <0|del|b> * <b|rxdel|0> + <0|del|b> * <b|delr+rdel|0>
 Rotatory Strengths (R) in cgs (10**-40 erg-esu-cm/Gauss)
       state          XX          YY          ZZ    R(velocity)
         1         0.0011      0.0052      0.0017      0.0027
 Total R(velocity) tensor for State=          1
                 1             2             3 
      1   0.110443D-02 -0.115851D-02  0.000000D+00
      2   0.103432D-02  0.523382D-02  0.000000D+00
      3  -0.288462D+02 -0.130520D+02  0.172735D-02
         2        -0.0262     -0.0048      0.0006     -0.0101
 Total R(velocity) tensor for State=          2
                 1             2             3 
      1  -0.262268D-01 -0.186277D-02  0.253178D+02
      2  -0.758332D-02 -0.484289D-02  0.199546D+02
      3   0.424875D+01 -0.109556D+01  0.632867D-03
         3         0.0277      0.0057      0.0007      0.0114
 Total R(velocity) tensor for State=          3
                 1             2             3 
      1   0.277001D-01 -0.566982D-02  0.409280D-05
      2   0.784762D-02  0.574073D-02  0.190879D-05
      3  -0.182200D+01  0.969135D+01  0.681105D-03
         4        -0.0107     -0.0090      0.0046     -0.0050
 Total R(velocity) tensor for State=          4
                 1             2             3 
      1  -0.106549D-01 -0.119266D-01  0.194034D+03
      2   0.367718D-02 -0.903324D-02 -0.619726D+02
      3  -0.598927D+00  0.280613D+02  0.458176D-02
         5        -0.0005      0.0009     -0.0028     -0.0008
 Total R(velocity) tensor for State=          5
                 1             2             3 
      1  -0.548710D-03 -0.589568D-03 -0.224316D+02
      2   0.115585D-02  0.949854D-03  0.298328D+02
      3   0.190214D+02  0.739973D+01 -0.276521D-02
         6        -0.0017     -0.0008      0.0008     -0.0006
 Total R(velocity) tensor for State=          6
                 1             2             3 
      1  -0.171410D-02 -0.718180D-03  0.000000D+00
      2  -0.516912D-02 -0.803579D-03  0.000000D+00
      3  -0.135621D+01  0.415202D+00  0.809637D-03
         7         0.0005      0.0149      0.0101      0.0085
 Total R(velocity) tensor for State=          7
                 1             2             3 
      1   0.538735D-03  0.436639D-01  0.207254D+03
      2  -0.587463D-02  0.148685D-01 -0.760412D+01
      3  -0.620806D+01  0.174641D+02  0.101053D-01
         8        -0.0129     -0.0141      0.0037     -0.0078
 Total R(velocity) tensor for State=          8
                 1             2             3 
      1  -0.128824D-01 -0.378815D-01  0.107358D-04
      2   0.661368D-02 -0.141422D-01  0.000000D+00
      3   0.618290D+01 -0.331765D+02  0.374961D-02
         9         0.0012      0.0000     -0.0007      0.0002
 Total R(velocity) tensor for State=          9
                 1             2             3 
      1   0.118168D-02 -0.139574D-02  0.000000D+00
      2  -0.561123D-03  0.363601D-04  0.000000D+00
      3  -0.380971D+01  0.320862D-03 -0.677637D-03
        10        -0.0001      0.0006     -0.0003      0.0001
 Total R(velocity) tensor for State=         10
                 1             2             3 
      1  -0.741230D-04 -0.703752D-03 -0.104572D+02
      2  -0.247265D-03  0.616596D-03 -0.124592D+01
      3  -0.266487D+01  0.782856D+01 -0.319292D-03
        11        -0.0002     -0.0045     -0.0009     -0.0018
 Total R(velocity) tensor for State=         11
                 1             2             3 
      1  -0.201066D-03 -0.623724D-02 -0.169255D+02
      2  -0.804807D-02 -0.446040D-02  0.871933D+01
      3   0.899208D+00  0.846471D+00 -0.886715D-03
        12         0.0002      0.0048     -0.0002      0.0016
 Total R(velocity) tensor for State=         12
                 1             2             3 
      1   0.171601D-03  0.702666D-02  0.000000D+00
      2   0.780809D-02  0.476047D-02  0.106634D-05
      3   0.638446D+00  0.294072D+01 -0.214292D-03
        13         0.0026      0.0061     -0.0017      0.0023
 Total R(velocity) tensor for State=         13
                 1             2             3 
      1   0.259713D-02  0.408561D-02 -0.275256D+01
      2  -0.358300D-02  0.606983D-02  0.878597D+00
      3   0.841917D+00 -0.225424D+01 -0.172814D-02
        14        -0.0026     -0.0056      0.0025     -0.0019
 Total R(velocity) tensor for State=         14
                 1             2             3 
      1  -0.260672D-02 -0.326675D-02  0.000000D+00
      2   0.296628D-02 -0.564343D-02  0.000000D+00
      3   0.170893D+02  0.352193D+02  0.247310D-02
        15         0.0005     -0.0005     -0.0013     -0.0004
 Total R(velocity) tensor for State=         15
                 1             2             3 
      1   0.498560D-03 -0.266128D-02 -0.157223D+02
      2   0.203963D-03 -0.545157D-03  0.696253D+01
      3  -0.132758D+01  0.538753D+01 -0.130193D-02
        16        -0.0032      0.0013     -0.0005     -0.0008
 Total R(velocity) tensor for State=         16
                 1             2             3 
      1  -0.321190D-02  0.191328D-02  0.000000D+00
      2  -0.360450D-02  0.132653D-02  0.000000D+00
      3   0.169369D+02 -0.190568D+02 -0.458219D-03
        17        -0.0018      0.0014     -0.0032     -0.0012
 Total R(velocity) tensor for State=         17
                 1             2             3 
      1  -0.176278D-02 -0.530958D-03  0.000000D+00
      2  -0.143895D-02  0.140598D-02  0.000000D+00
      3  -0.264182D+02  0.180162D+02 -0.320837D-02
        18        -0.0535      0.0010     -0.0149     -0.0225
 Total R(velocity) tensor for State=         18
                 1             2             3 
      1  -0.535376D-01  0.370267D-01 -0.212725D-04
      2   0.393710D-02  0.993092D-03 -0.879304D-05
      3  -0.761796D+01  0.954170D+01 -0.149371D-01
        19         0.0616     -0.0061      0.0325      0.0293
 Total R(velocity) tensor for State=         19
                 1             2             3 
      1   0.615593D-01 -0.150193D-01 -0.588022D+02
      2   0.211484D-01 -0.605823D-02 -0.156468D+02
      3   0.539487D+02 -0.233285D+02  0.325293D-01
        20        -0.0084      0.0075     -0.0141     -0.0050
 Total R(velocity) tensor for State=         20
                 1             2             3 
      1  -0.836612D-02 -0.857233D-02 -0.163683D-04
      2  -0.260364D-01  0.746043D-02 -0.750953D-05
      3   0.248904D+00 -0.112231D+02 -0.141153D-01
 1/2[<0|r|b>*<b|rxdel|0> + (<0|rxdel|b>*<b|r|0>)*]
 Rotatory Strengths (R) in cgs (10**-40 erg-esu-cm/Gauss)
       state          XX          YY          ZZ     R(length)     R(au)
         1         0.0061     -0.0009      0.0032      0.0028      0.0000
         2         0.0008     -0.0110     -0.0207     -0.0103      0.0000
         3         0.0002      0.0114      0.0229      0.0115      0.0000
         4        -0.0015      0.0002     -0.0141     -0.0051      0.0000
         5         0.0016     -0.0029     -0.0011     -0.0008      0.0000
         6        -0.0003     -0.0006     -0.0008     -0.0006      0.0000
         7         0.0216     -0.0158      0.0206      0.0088      0.0000
         8        -0.0039      0.0178     -0.0379     -0.0080      0.0000
         9        -0.0016      0.0005      0.0016      0.0002      0.0000
        10         0.0006      0.0000     -0.0002      0.0001      0.0000
        11        -0.0017     -0.0046      0.0005     -0.0019      0.0000
        12         0.0029      0.0041     -0.0019      0.0017      0.0000
        13        -0.0015     -0.0021      0.0098      0.0021      0.0000
        14         0.0011      0.0038     -0.0101     -0.0017      0.0000
        15        -0.0012      0.0004     -0.0003     -0.0004      0.0000
        16         0.0041     -0.0042     -0.0024     -0.0009      0.0000
        17        -0.0024     -0.0064      0.0048     -0.0013      0.0000
        18         0.0155     -0.0815     -0.0007     -0.0222      0.0000
        19        -0.0112      0.0993     -0.0012      0.0290      0.0001
        20         0.0003     -0.0176      0.0025     -0.0049      0.0000
  1/2[<0|del|b>*<b|r|0> + (<0|r|b>*<b|del|0>)*] (Au)
       state          X           Y           Z        Dip. S.   Osc.(frdel)
         1         0.0000      0.0000     -0.0017      0.0017      0.0011
         2        -0.0005     -0.0057      0.0000      0.0062      0.0041
         3         0.0000      0.0000     -0.0223      0.0223      0.0149
         4        -0.4915     -0.0003      0.0000      0.4918      0.3279
         5        -0.0301     -0.2012      0.0000      0.2313      0.1542
         6         0.0000      0.0000     -0.0012      0.0012      0.0008
         7        -0.1494     -0.0190      0.0000      0.1684      0.1123
         8         0.0000      0.0000     -0.0549      0.0549      0.0366
         9         0.0000      0.0000     -0.0117      0.0117      0.0078
        10        -0.0072     -0.0008      0.0000      0.0080      0.0054
        11        -0.0045     -0.0050      0.0000      0.0095      0.0063
        12         0.0000      0.0000     -0.0109      0.0109      0.0072
        13        -0.0012     -0.0001      0.0000      0.0013      0.0009
        14         0.0000      0.0000     -0.0173      0.0173      0.0115
        15        -0.0101     -0.0009      0.0000      0.0110      0.0073
        16         0.0000      0.0000     -0.0021      0.0021      0.0014
        17         0.0000      0.0000     -0.0130      0.0130      0.0087
        18         0.0000      0.0000     -0.0033      0.0033      0.0022
        19        -0.0123     -0.0620      0.0000      0.0744      0.0496
        20         0.0000      0.0000     -0.0141      0.0141      0.0094
 Ground to excited state transition densities written to RWF  633

 Excitation energies and oscillator strengths:
 
 Excited state symmetry could not be determined.
 Excited State   1:      Singlet-?Sym    5.7585 eV  215.31 nm  f=0.0010  <S**2>=0.000
      12 -> 16         0.67201
      12 -> 17        -0.19817
 This state for optimization and/or second-order correction.
 Copying the excited state density for this state as the 1-particle RhoCI density.
 
 Excited state symmetry could not be determined.
 Excited State   2:      Singlet-?Sym    6.9828 eV  177.56 nm  f=0.0041  <S**2>=0.000
      11 -> 16         0.21060
      12 -> 13         0.58280
      12 -> 15         0.24535
      12 -> 18        -0.11639
      12 -> 20        -0.11128
 
 Excited state symmetry could not be determined.
 Excited State   3:      Singlet-?Sym    7.0555 eV  175.73 nm  f=0.0154  <S**2>=0.000
      11 -> 13         0.66495
      11 -> 14         0.10376
      11 -> 19        -0.13325
      11 -> 20        -0.13321
 
 Excited state symmetry could not be determined.
 Excited State   4:      Singlet-?Sym    7.2786 eV  170.34 nm  f=0.3332  <S**2>=0.000
      11 -> 16         0.55414
      11 -> 17        -0.24884
      12 -> 13        -0.12092
      12 -> 14         0.24545
      12 -> 15        -0.13901
      12 -> 18         0.10071
 
 Excited state symmetry could not be determined.
 Excited State   5:      Singlet-?Sym    7.6531 eV  162.01 nm  f=0.1562  <S**2>=0.000
      11 -> 16        -0.16103
      12 -> 14         0.58622
      12 -> 15         0.25123
      12 -> 18        -0.12116
      12 -> 19        -0.13061
      12 -> 21        -0.10057
 
 Excited state symmetry could not be determined.
 Excited State   6:      Singlet-?Sym    7.7885 eV  159.19 nm  f=0.0007  <S**2>=0.000
      11 -> 13        -0.10747
      11 -> 14         0.63831
      11 -> 15         0.18600
      11 -> 21        -0.15284
 
 Excited state symmetry could not be determined.
 Excited State   7:      Singlet-?Sym    7.9863 eV  155.25 nm  f=0.1134  <S**2>=0.000
      11 -> 16         0.13445
      12 -> 13        -0.34178
      12 -> 14        -0.17914
      12 -> 15         0.50236
      12 -> 18        -0.23171
 
 Excited state symmetry could not be determined.
 Excited State   8:      Singlet-?Sym    8.0390 eV  154.23 nm  f=0.0377  <S**2>=0.000
      11 -> 14        -0.17832
      11 -> 15         0.64039
      11 -> 18        -0.16359
      11 -> 23        -0.10793
 
 Excited state symmetry could not be determined.
 Excited State   9:      Singlet-?Sym    8.3858 eV  147.85 nm  f=0.0076  <S**2>=0.000
      12 -> 16         0.19331
      12 -> 17         0.66986
 
 Excited state symmetry could not be determined.
 Excited State  10:      Singlet-?Sym    8.6828 eV  142.79 nm  f=0.0064  <S**2>=0.000
      11 -> 16         0.28933
      11 -> 17         0.63523
 
 Excited state symmetry could not be determined.
 Excited State  11:      Singlet-?Sym    9.0330 eV  137.26 nm  f=0.0066  <S**2>=0.000
      12 -> 15         0.29463
      12 -> 18         0.61247
      12 -> 19         0.12520
 
 Excited state symmetry could not be determined.
 Excited State  12:      Singlet-?Sym    9.1128 eV  136.05 nm  f=0.0076  <S**2>=0.000
      11 -> 15         0.13499
      11 -> 18         0.65580
      11 -> 24         0.14675
 
 Excited state symmetry could not be determined.
 Excited State  13:      Singlet-?Sym    9.3222 eV  133.00 nm  f=0.0014  <S**2>=0.000
      12 -> 14         0.14982
      12 -> 18        -0.11067
      12 -> 19         0.64827
      12 -> 21        -0.10073
 
 Excited state symmetry could not be determined.
 Excited State  14:      Singlet-?Sym    9.3827 eV  132.14 nm  f=0.0115  <S**2>=0.000
      11 -> 13         0.11837
      11 -> 19         0.67057
 
 Excited state symmetry could not be determined.
 Excited State  15:      Singlet-?Sym    9.9732 eV  124.32 nm  f=0.0077  <S**2>=0.000
      12 -> 13         0.10389
      12 -> 14        -0.10627
      12 -> 20         0.57762
      12 -> 23         0.32350
      12 -> 24         0.10799
 
 Excited state symmetry could not be determined.
 Excited State  16:      Singlet-?Sym   10.1415 eV  122.25 nm  f=0.0014  <S**2>=0.000
       9 -> 16         0.64493
       9 -> 17        -0.18743
      11 -> 20         0.11274
      11 -> 23         0.12451
 
 Excited state symmetry could not be determined.
 Excited State  17:      Singlet-?Sym   10.2406 eV  121.07 nm  f=0.0082  <S**2>=0.000
       9 -> 16        -0.14596
      11 -> 13         0.14259
      11 -> 20         0.61702
      11 -> 21         0.16317
      11 -> 23         0.14752
 
 Excited state symmetry could not be determined.
 Excited State  18:      Singlet-?Sym   10.4822 eV  118.28 nm  f=0.0030  <S**2>=0.000
       9 -> 16        -0.10686
      11 -> 20        -0.15572
      11 -> 23         0.57145
      11 -> 24         0.24050
      11 -> 26        -0.13237
      12 -> 22         0.12950
 
 Excited state symmetry could not be determined.
 Excited State  19:      Singlet-?Sym   10.5065 eV  118.01 nm  f=0.0497  <S**2>=0.000
      11 -> 22        -0.20874
      12 -> 14         0.10823
      12 -> 20        -0.21045
      12 -> 21         0.39660
      12 -> 23         0.40132
      12 -> 24         0.21772
 
 Excited state symmetry could not be determined.
 Excited State  20:      Singlet-?Sym   10.5326 eV  117.72 nm  f=0.0096  <S**2>=0.000
      11 -> 14        -0.11893
      11 -> 20         0.12862
      11 -> 21        -0.34909
      11 -> 23        -0.10406
      12 -> 22         0.54700
      12 -> 25        -0.12297
 SavETr:  write IOETrn=   770 NScale= 10 NData=  16 NLR=1 LETran=     370.
 FoFJK:  IHMeth= 1 ICntrl=     0 DoSepK=T KAlg= 1 I1Cent= 0 FoldK=F
 FoFJK:  IHMeth= 1 ICntrl=     0 DoSepK=T KAlg= 1 I1Cent= 0 FoldK=F
          IDoAtm=111111
 NEqPCM:  Using equilibrium solvation (IEInf=0, Eps=  78.3553, EpsInf=   1.7778)
          Differentiating once with respect to electric field.
                with respect to dipole field.
          Differentiating once with respect to nuclear coordinates.
          There are     1 degrees of freedom in the 1st order CPHF.  IDoFFX=0.
 FoFJK:  IHMeth= 1 ICntrl=     0 DoSepK=T KAlg= 1 I1Cent= 0 FoldK=F
 LinEq1:  Iter=  0 NonCon=     1 RMS=3.32D-02 Max=5.03D-01
 AX will form     1 AO Fock derivatives at one time.
 FoFJK:  IHMeth= 1 ICntrl=     0 DoSepK=T KAlg= 1 I1Cent= 0 FoldK=F
 LinEq1:  Iter=  1 NonCon=     1 RMS=7.29D-03 Max=7.74D-02
 FoFJK:  IHMeth= 1 ICntrl=     0 DoSepK=T KAlg= 1 I1Cent= 0 FoldK=F
 LinEq1:  Iter=  2 NonCon=     1 RMS=3.91D-03 Max=3.65D-02
 FoFJK:  IHMeth= 1 ICntrl=     0 DoSepK=T KAlg= 1 I1Cent= 0 FoldK=F
 LinEq1:  Iter=  3 NonCon=     1 RMS=1.37D-03 Max=1.08D-02
 FoFJK:  IHMeth= 1 ICntrl=     0 DoSepK=T KAlg= 1 I1Cent= 0 FoldK=F
 LinEq1:  Iter=  4 NonCon=     1 RMS=5.96D-04 Max=4.76D-03
 FoFJK:  IHMeth= 1 ICntrl=     0 DoSepK=T KAlg= 1 I1Cent= 0 FoldK=F
 LinEq1:  Iter=  5 NonCon=     1 RMS=1.68D-04 Max=1.23D-03
 FoFJK:  IHMeth= 1 ICntrl=     0 DoSepK=T KAlg= 1 I1Cent= 0 FoldK=F
 LinEq1:  Iter=  6 NonCon=     1 RMS=3.44D-05 Max=4.19D-04
 FoFJK:  IHMeth= 1 ICntrl=     0 DoSepK=T KAlg= 1 I1Cent= 0 FoldK=F
 LinEq1:  Iter=  7 NonCon=     1 RMS=7.02D-06 Max=6.72D-05
 FoFJK:  IHMeth= 1 ICntrl=     0 DoSepK=T KAlg= 1 I1Cent= 0 FoldK=F
 LinEq1:  Iter=  8 NonCon=     1 RMS=1.40D-06 Max=1.29D-05
 FoFJK:  IHMeth= 1 ICntrl=     0 DoSepK=T KAlg= 1 I1Cent= 0 FoldK=F
 LinEq1:  Iter=  9 NonCon=     1 RMS=2.02D-07 Max=1.36D-06
 FoFJK:  IHMeth= 1 ICntrl=     0 DoSepK=T KAlg= 1 I1Cent= 0 FoldK=F
 LinEq1:  Iter= 10 NonCon=     1 RMS=2.63D-08 Max=2.05D-07
 FoFJK:  IHMeth= 1 ICntrl=     0 DoSepK=T KAlg= 1 I1Cent= 0 FoldK=F
 LinEq1:  Iter= 11 NonCon=     1 RMS=4.81D-09 Max=3.00D-08
 FoFJK:  IHMeth= 1 ICntrl=     0 DoSepK=T KAlg= 1 I1Cent= 0 FoldK=F
 LinEq1:  Iter= 12 NonCon=     1 RMS=9.06D-10 Max=6.78D-09
 FoFJK:  IHMeth= 1 ICntrl=     0 DoSepK=T KAlg= 1 I1Cent= 0 FoldK=F
 LinEq1:  Iter= 13 NonCon=     1 RMS=1.03D-10 Max=7.74D-10
 FoFJK:  IHMeth= 1 ICntrl=     0 DoSepK=T KAlg= 1 I1Cent= 0 FoldK=F
 LinEq1:  Iter= 14 NonCon=     0 RMS=1.33D-11 Max=1.20D-10
 Linear equations converged to 1.000D-10 1.000D-09 after    14 iterations.
 FoFJK:  IHMeth= 1 ICntrl=     0 DoSepK=T KAlg= 1 I1Cent= 0 FoldK=F
 End of Minotr Frequency-dependent properties file   721 does not exist.
 End of Minotr Frequency-dependent properties file   722 does not exist.

 **********************************************************************

            Population analysis using the SCF density.

 **********************************************************************

 Alpha  occ. eigenvalues --  -19.20592 -14.43921 -10.37654  -1.13251  -1.00140
 Alpha  occ. eigenvalues --   -0.70900  -0.63283  -0.56221  -0.49948  -0.49027
 Alpha  occ. eigenvalues --   -0.35108  -0.34314
 Alpha virt. eigenvalues --    0.01671   0.03328   0.04398   0.04944   0.07805
 Alpha virt. eigenvalues --    0.08200   0.09546   0.12744   0.14289   0.14951
 Alpha virt. eigenvalues --    0.15949   0.18128   0.20969   0.21113   0.21475
 Alpha virt. eigenvalues --    0.26157   0.27057   0.27879   0.29166   0.35807
 Alpha virt. eigenvalues --    0.35958   0.36487   0.39837   0.44236   0.45521
 Alpha virt. eigenvalues --    0.48141   0.49435   0.51473   0.54114   0.54574
 Alpha virt. eigenvalues --    0.55022   0.57584   0.58384   0.60579   0.66859
 Alpha virt. eigenvalues --    0.68992   0.72108   0.75272   0.80440   0.83460
 Alpha virt. eigenvalues --    0.86149   0.87232   0.91455   1.05604   1.07186
 Alpha virt. eigenvalues --    1.08786   1.12408   1.18207   1.22635   1.26539
 Alpha virt. eigenvalues --    1.30111   1.34930   1.42877   1.49236   1.49240
 Alpha virt. eigenvalues --    1.66239   1.69918   1.71600   1.76712   1.80636
 Alpha virt. eigenvalues --    1.83629   1.87524   2.00351   2.03408   2.05066
 Alpha virt. eigenvalues --    2.10199   2.14980   2.22047   2.22796   2.28727
 Alpha virt. eigenvalues --    2.46313   2.51524   2.55134   2.66073   2.69134
 Alpha virt. eigenvalues --    2.86876   3.02817   3.17882   3.31104   3.40263
 Alpha virt. eigenvalues --    3.45509   3.46312   3.71927   3.77736
          Condensed to atoms (all electrons):
              1          2          3          4          5          6
     1  C    4.808898   0.335984   0.326708  -0.192686  -0.131091   0.034611
     2  N    0.335984   5.856118  -0.065821   0.390049   0.349243  -0.027194
     3  O    0.326708  -0.065821   8.386466   0.001783  -0.002294  -0.092568
     4  H   -0.192686   0.390049   0.001783   1.048857  -0.216210   0.057068
     5  H   -0.131091   0.349243  -0.002294  -0.216210   1.054479  -0.010156
     6  H    0.034611  -0.027194  -0.092568   0.057068  -0.010156   1.330329
 Mulliken atomic charges:
              1
     1  C    0.817577
     2  N    0.161620
     3  O   -0.554274
     4  H   -0.088860
     5  H   -0.043972
     6  H   -0.292090
 Sum of Mulliken atomic charges =   0.00000
 Mulliken charges with hydrogens summed into heavy atoms:
              1
     1  C    0.525486
     2  N    0.028788
     3  O   -0.554274
 Sum of Mulliken charges with hydrogens summed into heavy atoms =   0.00000
 Electronic spatial extent (au):  <R**2>=            146.9405
 Charge=              0.0000 electrons
 Dipole moment (field-independent basis, Debye):
    X=              5.1238    Y=              1.2632    Z=              0.0005  Tot=              5.2772
 Quadrupole moment (field-independent basis, Debye-Ang):
   XX=            -18.5724   YY=            -15.2274   ZZ=            -19.2154
   XY=             -1.5257   XZ=              0.0002   YZ=             -0.0001
 Traceless Quadrupole moment (field-independent basis, Debye-Ang):
   XX=             -0.9007   YY=              2.4444   ZZ=             -1.5436
   XY=             -1.5257   XZ=              0.0002   YZ=             -0.0001
 Octapole moment (field-independent basis, Debye-Ang**2):
  XXX=             17.6895  YYY=             -0.6427  ZZZ=              0.0000  XYY=              3.9508
  XXY=              1.2891  XXZ=              0.0016  XZZ=             -0.7030  YZZ=              0.0247
  YYZ=              0.0003  XYZ=              0.0001
 Hexadecapole moment (field-independent basis, Debye-Ang**3):
 XXXX=           -115.0901 YYYY=            -33.8700 ZZZZ=            -19.6085 XXXY=              1.9779
 XXXZ=             -0.0015 YYYX=             -4.5769 YYYZ=             -0.0004 ZZZX=             -0.0036
 ZZZY=              0.0000 XXYY=            -24.0874 XXZZ=            -26.3725 YYZZ=            -10.2570
 XXYZ=              0.0002 YYXZ=             -0.0008 ZZXY=             -0.0017
 N-N= 7.116952588400D+01 E-N=-5.404459692202D+02  KE= 1.687833827230D+02
 D1PCM: PCM CHGder 1st derivatives, ID1Alg=3 FixD1E=F DoIter=F DoCFld=F I1PDM=6.
 Calling FoFJK, ICntrl=      5127 FMM=F ISym2X=0 I1Cent= 0 IOpClX= 0 NMat=1 NMatS=1 NMatT=0.
 FoFJK:  IHMeth= 1 ICntrl=  5127 DoSepK=T KAlg= 1 I1Cent= 0 FoldK=F
 -------------------------------------------------------------------
 Center     Atomic                   Forces (Hartrees/Bohr)
 Number     Number              X              Y              Z
 -------------------------------------------------------------------
      1        6           0.070012214    0.105742773    0.000006035
      2        7           0.046501087   -0.039250419    0.000000057
      3        8          -0.102829876   -0.066149325   -0.000006848
      4        1           0.002284330    0.004130940    0.000000997
      5        1          -0.004357822   -0.001857898    0.000000514
      6        1          -0.011609934   -0.002616072   -0.000000755
 -------------------------------------------------------------------
 Cartesian Forces:  Max     0.105742773 RMS     0.044046861

 GradGradGradGradGradGradGradGradGradGradGradGradGradGradGradGradGradGrad
 Berny optimization.
 Internal  Forces:  Max     0.122217461 RMS     0.035283463
 Search for a local minimum.
 Step number   1 out of a maximum of   25
 All quantities printed in internal units (Hartrees-Bohrs-Radians)
 Mixed Optimization -- RFO/linear search
 Second derivative matrix not updated -- first step.
 The second derivative matrix:
                          R1        R2        R3        R4        R5
           R1           0.56693
           R2           0.00000   0.92361
           R3           0.00000   0.00000   0.33098
           R4           0.00000   0.00000   0.00000   0.45754
           R5           0.00000   0.00000   0.00000   0.00000   0.46145
           A1           0.00000   0.00000   0.00000   0.00000   0.00000
           A2           0.00000   0.00000   0.00000   0.00000   0.00000
           A3           0.00000   0.00000   0.00000   0.00000   0.00000
           A4           0.00000   0.00000   0.00000   0.00000   0.00000
           A5           0.00000   0.00000   0.00000   0.00000   0.00000
           A6           0.00000   0.00000   0.00000   0.00000   0.00000
           D1           0.00000   0.00000   0.00000   0.00000   0.00000
           D2           0.00000   0.00000   0.00000   0.00000   0.00000
           D3           0.00000   0.00000   0.00000   0.00000   0.00000
           D4           0.00000   0.00000   0.00000   0.00000   0.00000
                          A1        A2        A3        A4        A5
           A1           0.25000
           A2           0.00000   0.16000
           A3           0.00000   0.00000   0.16000
           A4           0.00000   0.00000   0.00000   0.16000
           A5           0.00000   0.00000   0.00000   0.00000   0.16000
           A6           0.00000   0.00000   0.00000   0.00000   0.00000
           D1           0.00000   0.00000   0.00000   0.00000   0.00000
           D2           0.00000   0.00000   0.00000   0.00000   0.00000
           D3           0.00000   0.00000   0.00000   0.00000   0.00000
           D4           0.00000   0.00000   0.00000   0.00000   0.00000
                          A6        D1        D2        D3        D4
           A6           0.16000
           D1           0.00000   0.02455
           D2           0.00000   0.00000   0.02455
           D3           0.00000   0.00000   0.00000   0.02455
           D4           0.00000   0.00000   0.00000   0.00000   0.02455
     Eigenvalues ---    0.02455   0.02455   0.02455   0.16000   0.16000
     Eigenvalues ---    0.16000   0.22000   0.33098   0.45754   0.46145
     Eigenvalues ---    0.56693   0.923611000.000001000.000001000.00000
 RFO step:  Lambda=-2.39606272D-02 EMin= 2.45504600D-02
 Linear search not attempted -- first point.
 Iteration  1 RMS(Cart)=  0.05716070 RMS(Int)=  0.00137836
 Iteration  2 RMS(Cart)=  0.00133423 RMS(Int)=  0.00000075
 Iteration  3 RMS(Cart)=  0.00000074 RMS(Int)=  0.00000000
 Variable       Old X    -DE/DX   Delta X   Delta X   Delta X     New X
                                 (Linear)    (Quad)   (Total)
    R1        2.53658   0.05568   0.00000   0.09424   0.09424   2.63081
    R2        2.31863   0.12222   0.00000   0.12898   0.12898   2.44761
    R3        2.08880  -0.00277   0.00000  -0.00780  -0.00780   2.08100
    R4        1.91109  -0.00387   0.00000  -0.00803  -0.00803   1.90306
    R5        1.90668  -0.00464   0.00000  -0.00955  -0.00955   1.89713
    A1        2.17634  -0.01350   0.00000  -0.05535  -0.05535   2.12099
    A2        1.97993   0.01884   0.00000   0.09337   0.09337   2.07330
    A3        2.12692  -0.00533   0.00000  -0.03803  -0.03803   2.08889
    A4        2.09837   0.00406   0.00000   0.02208   0.02208   2.12044
    A5        2.10930  -0.00296   0.00000  -0.01607  -0.01607   2.09323
    A6        2.07552  -0.00110   0.00000  -0.00601  -0.00601   2.06951
    D1       -0.00004   0.00000   0.00000  -0.00002  -0.00002  -0.00006
    D2       -3.14155   0.00000   0.00000   0.00001   0.00001  -3.14153
    D3        3.14156   0.00000   0.00000  -0.00001  -0.00001   3.14155
    D4        0.00005   0.00000   0.00000   0.00002   0.00002   0.00007
         Item               Value     Threshold  Converged?
 Maximum Force            0.122217     0.000450     NO 
 RMS     Force            0.035283     0.000300     NO 
 Maximum Displacement     0.114651     0.001800     NO 
 RMS     Displacement     0.056448     0.001200     NO 
 Predicted change in Energy=-1.245643D-02
 GradGradGradGradGradGradGradGradGradGradGradGradGradGradGradGradGradGrad

                          Input orientation:                          
 ---------------------------------------------------------------------
 Center     Atomic      Atomic             Coordinates (Angstroms)
 Number     Number       Type             X           Y           Z
 ---------------------------------------------------------------------
      1          6           0       -0.142209    0.433389   -0.000008
      2          7           0        1.108241   -0.178578    0.000054
      3          8           0       -1.235809   -0.260612   -0.000078
      4          1           0        1.203284   -1.181140    0.000097
      5          1           0        1.940626    0.382659    0.000159
      6          1           0       -0.194363    1.533370   -0.000008
 ---------------------------------------------------------------------
                    Distance matrix (angstroms):
                    1          2          3          4          5
     1  C    0.000000
     2  N    1.392167   0.000000
     3  O    1.295222   2.345485   0.000000
     4  H    2.101679   1.007057   2.607020   0.000000
     5  H    2.083453   1.003919   3.240917   1.728913   0.000000
     6  H    1.101217   2.151172   2.074363   3.053192   2.425348
                    6
     6  H    0.000000
 Symmetry turned off by external request.
 Stoichiometry    CH3NO
 Framework group  C1[X(CH3NO)]
 Deg. of freedom    12
 Full point group                 C1      NOp   1
 Rotational constants (GHZ):     65.7288313     10.7587467      9.2454208
 Standard basis: Aug-CC-pVDZ (5D, 7F)
 Integral buffers will be    131072 words long.
 Raffenetti 2 integral format.
 Two-electron integral symmetry is turned off.
    96 basis functions,   162 primitive gaussians,   102 cartesian basis functions
    12 alpha electrons       12 beta electrons
       nuclear repulsion energy        68.8864610752 Hartrees.
 NAtoms=    6 NActive=    6 NUniq=    6 SFac= 7.50D-01 NAtFMM=   80 NAOKFM=F Big=F
 Standard density basis: Auto (5D, 7F)
   327 Density fitting functions
 ------------------------------------------------------------------------------
 Polarizable Continuum Model (PCM)
 =================================
 Model                : PCM.
 Atomic radii         : UFF (Universal Force Field).
 Polarization charges : Total charges.
 Charge compensation  : None.
 Solution method      : Matrix inversion.
 Cavity type          : Scaled VdW (van der Waals Surface) (Alpha=1.100).
 Cavity algorithm     : GePol (No added spheres)
                        Default sphere list used, NSphG=    6.
                        Lebedev-Laikov grids with approx.  5.0 points / Ang**2.
                        Smoothing algorithm: Karplus/York (Gamma=1.0000).
                        Polarization charges: spherical gaussians, with
                                              point-specific exponents (IZeta= 3).
                        Self-potential: point-specific (ISelfS= 7).
                        Self-field    : sphere-specific E.n sum rule (ISelfD= 2).
 1st derivatives      : Analytical E(r).r(x)/FMM algorithm (CHGder, D1EAlg=3).
                        Cavity 1st derivative terms included.
 Solvent              : Water, Eps=  78.355300 Eps(inf)=   1.777849
 ------------------------------------------------------------------------------
 Spheres list:
 ISph  on   Nord    Re0     Alpha      Xe            Ye            Ze
    1   C      1    1.926   1.100     -0.142209      0.433389     -0.000008
    2   N      2    1.830   1.100      1.108241     -0.178578      0.000054
    3   O      3    1.750   1.100     -1.235809     -0.260612     -0.000078
    4   H      4    1.443   1.100      1.203284     -1.181140      0.000097
    5   H      5    1.443   1.100      1.940626      0.382659      0.000159
    6   H      6    1.443   1.100     -0.194363      1.533370     -0.000008
 ------------------------------------------------------------------------------
 One-electron integrals computed using PRISM.
 NBasis=    96 RedAO= T  NBF=    96
 NBsUse=    96 1.00D-06 NBFU=    96
 Initial guess read from the read-write file.
 B after Tr=     0.000000    0.000000    0.000000
         Rot=    1.000000    0.000000    0.000000    0.000000 Ang=   0.00 deg.
 Harris functional with IExCor=20419 diagonalized for initial guess.
 ExpMin= 2.97D-02 ExpMax= 1.17D+04 ExpMxC= 4.01D+02 IAcc=3 IRadAn=         5 AccDes= 0.00D+00
 HarFok:  IExCor=20419 AccDes= 0.00D+00 IRadAn=         5 IDoV= 1
 ScaDFX=  1.000000  1.000000  1.000000  1.000000
 FoFCou: FMM=F IPFlag=           0 FMFlag=      100000 FMFlg1=           0
         NFxFlg=           0 DoJE=T BraDBF=F KetDBF=T FulRan=T
         Omega=  0.000000  0.000000  1.000000  0.000000  0.000000 ICntrl=     500 IOpCl=  0
         NMat0=    1 NMatS0=    1 NMatT0=    0 NMatD0=    1 NMtDS0=    0 NMtDT0=    0
         I1Cent=           4 NGrid=           0.
 Symmetry not used in FoFCou.
 Requested convergence on RMS density matrix=1.00D-08 within 128 cycles.
 Requested convergence on MAX density matrix=1.00D-06.
 Requested convergence on             energy=1.00D-06.
 No special actions if energy rises.
 FoFJK:  IHMeth= 1 ICntrl=     0 DoSepK=T KAlg= 1 I1Cent= 0 FoldK=F
 FoFJK:  IHMeth= 1 ICntrl=     0 DoSepK=T KAlg= 1 I1Cent= 0 FoldK=F
 FoFJK:  IHMeth= 1 ICntrl=     0 DoSepK=T KAlg= 1 I1Cent= 0 FoldK=F
 FoFJK:  IHMeth= 1 ICntrl=     0 DoSepK=T KAlg= 1 I1Cent= 0 FoldK=F
 FoFJK:  IHMeth= 1 ICntrl=     0 DoSepK=T KAlg= 1 I1Cent= 0 FoldK=F
 FoFJK:  IHMeth= 1 ICntrl=     0 DoSepK=T KAlg= 1 I1Cent= 0 FoldK=F
 FoFJK:  IHMeth= 1 ICntrl=     0 DoSepK=T KAlg= 1 I1Cent= 0 FoldK=F
 FoFJK:  IHMeth= 1 ICntrl=     0 DoSepK=T KAlg= 1 I1Cent= 0 FoldK=F
 FoFJK:  IHMeth= 1 ICntrl=     0 DoSepK=T KAlg= 1 I1Cent= 0 FoldK=F
 FoFJK:  IHMeth= 1 ICntrl=     0 DoSepK=T KAlg= 1 I1Cent= 0 FoldK=F
 FoFJK:  IHMeth= 1 ICntrl=     0 DoSepK=T KAlg= 1 I1Cent= 0 FoldK=F
 Error on total polarization charges =  0.01080
 SCF Done:  E(RCAM-B3LYP) =  -169.854979507     A.U. after   11 cycles
             Convg  =    0.3112D-08             -V/T =  2.0083
 ExpMin= 2.97D-02 ExpMax= 1.17D+04 ExpMxC= 4.01D+02 IAcc=3 IRadAn=         5 AccDes= 0.00D+00
 HarFok:  IExCor=  205 AccDes= 0.00D+00 IRadAn=         5 IDoV=-2
 ScaDFX=  1.000000  1.000000  1.000000  1.000000
 Range of M.O.s used for correlation:     4    96
 NBasis=    96 NAE=    12 NBE=    12 NFC=     3 NFV=     0
 NROrb=     93 NOA=     9 NOB=     9 NVA=    84 NVB=    84

 **** Warning!!: The largest alpha MO coefficient is  0.18061299D+02

 NEqPCM:  Using equilibrium solvation (IEInf=0, Eps=  78.3553, EpsInf=   1.7778)
 Generating guess from densities on rwf.
 Convergence on wavefunction:    0.000001000000000
 Iteration     1 Dimension    40 NMult    40
 CISAX will form    40 AO SS matrices at one time.
 FoFJK:  IHMeth= 1 ICntrl=     0 DoSepK=T KAlg= 1 I1Cent= 0 FoldK=F
 FoFJK:  IHMeth= 1 ICntrl=     0 DoSepK=T KAlg= 1 I1Cent= 0 FoldK=F
 New state      2 was old state      4
 New state      4 was old state      2
 New state      7 was old state      8
 New state      8 was old state      7
 New state     11 was old state     12
 New state     12 was old state     11
 New state     13 was old state     14
 New state     14 was old state     16
 New state     15 was old state     13
 New state     16 was old state     15
 New state     19 was old state     20
 New state     20 was old state     19
 Iteration     2 Dimension    80 NMult    80
 FoFJK:  IHMeth= 1 ICntrl=     0 DoSepK=T KAlg= 1 I1Cent= 0 FoldK=F
 FoFJK:  IHMeth= 1 ICntrl=     0 DoSepK=T KAlg= 1 I1Cent= 0 FoldK=F
 Iteration     3 Dimension   120 NMult   120
 FoFJK:  IHMeth= 1 ICntrl=     0 DoSepK=T KAlg= 1 I1Cent= 0 FoldK=F
 FoFJK:  IHMeth= 1 ICntrl=     0 DoSepK=T KAlg= 1 I1Cent= 0 FoldK=F
 New state     18 was old state     20
 New state     19 was old state     18
 No map to state     20
 Iteration     4 Dimension   160 NMult   160
 FoFJK:  IHMeth= 1 ICntrl=     0 DoSepK=T KAlg= 1 I1Cent= 0 FoldK=F
 FoFJK:  IHMeth= 1 ICntrl=     0 DoSepK=T KAlg= 1 I1Cent= 0 FoldK=F
 New state     17 was old state     18
 New state     18 was old state     17
 No map to state     20
 Iteration     5 Dimension   200 NMult   200
 FoFJK:  IHMeth= 1 ICntrl=     0 DoSepK=T KAlg= 1 I1Cent= 0 FoldK=F
 FoFJK:  IHMeth= 1 ICntrl=     0 DoSepK=T KAlg= 1 I1Cent= 0 FoldK=F
 Iteration     6 Dimension   240 NMult   240
 FoFJK:  IHMeth= 1 ICntrl=     0 DoSepK=T KAlg= 1 I1Cent= 0 FoldK=F
 FoFJK:  IHMeth= 1 ICntrl=     0 DoSepK=T KAlg= 1 I1Cent= 0 FoldK=F
 Iteration     7 Dimension   272 NMult   272
 FoFJK:  IHMeth= 1 ICntrl=     0 DoSepK=T KAlg= 1 I1Cent= 0 FoldK=F
 FoFJK:  IHMeth= 1 ICntrl=     0 DoSepK=T KAlg= 1 I1Cent= 0 FoldK=F
 Iteration     8 Dimension   288 NMult   288
 FoFJK:  IHMeth= 1 ICntrl=     0 DoSepK=T KAlg= 1 I1Cent= 0 FoldK=F
 FoFJK:  IHMeth= 1 ICntrl=     0 DoSepK=T KAlg= 1 I1Cent= 0 FoldK=F
 Iteration     9 Dimension   298 NMult   298
 FoFJK:  IHMeth= 1 ICntrl=     0 DoSepK=T KAlg= 1 I1Cent= 0 FoldK=F
 FoFJK:  IHMeth= 1 ICntrl=     0 DoSepK=T KAlg= 1 I1Cent= 0 FoldK=F
 Iteration    10 Dimension   304 NMult   304
 FoFJK:  IHMeth= 1 ICntrl=     0 DoSepK=T KAlg= 1 I1Cent= 0 FoldK=F
 FoFJK:  IHMeth= 1 ICntrl=     0 DoSepK=T KAlg= 1 I1Cent= 0 FoldK=F
 Iteration    11 Dimension   308 NMult   308
 FoFJK:  IHMeth= 1 ICntrl=     0 DoSepK=T KAlg= 1 I1Cent= 0 FoldK=F
 FoFJK:  IHMeth= 1 ICntrl=     0 DoSepK=T KAlg= 1 I1Cent= 0 FoldK=F
 ***********************************************************************
 Excited states from <AA,BB:AA,BB> singles matrix:
 ***********************************************************************
 
 Ground to excited state transition electric dipole moments (Au):
       state          X           Y           Z        Dip. S.      Osc.
         1         0.0000      0.0000      0.0566      0.0032      0.0004
         2         1.2917      0.0624      0.0001      1.6723      0.2701
         3        -0.0004      0.0001      0.2636      0.0695      0.0119
         4        -0.7102      0.2426     -0.0002      0.5633      0.0967
         5        -0.1957      0.6990      0.0000      0.5269      0.0992
         6         0.0000     -0.0003      0.1553      0.0241      0.0046
         7         0.0002      0.0001     -0.4796      0.2300      0.0446
         8         0.5293      0.3389      0.0002      0.3950      0.0772
         9         0.0000      0.0000      0.1406      0.0198      0.0041
        10        -0.2101     -0.0347      0.0000      0.0453      0.0096
        11         0.0001      0.0000      0.1989      0.0396      0.0087
        12         0.1840     -0.0835     -0.0001      0.0408      0.0090
        13         0.0000      0.0000     -0.1150      0.0132      0.0030
        14        -0.0001     -0.0001     -0.1616      0.0261      0.0059
        15        -0.1321     -0.0869      0.0001      0.0250      0.0057
        16         0.0351      0.6131      0.0000      0.3771      0.0912
        17         0.2028     -0.4251      0.0000      0.2219      0.0547
        18         0.0000      0.0001     -0.2387      0.0570      0.0142
        19         0.0000     -0.0001      0.1915      0.0367      0.0094
        20        -0.0001      0.0004      0.1177      0.0138      0.0035
 Ground to excited state transition velocity dipole moments (Au):
       state          X           Y           Z        Dip. S.      Osc.
         1         0.0000      0.0000     -0.0136      0.0002      0.0007
         2        -0.3081     -0.0150      0.0000      0.0951      0.2618
         3         0.0001      0.0000     -0.0652      0.0043      0.0111
         4         0.1817     -0.0630      0.0000      0.0370      0.0957
         5         0.0559     -0.1940      0.0000      0.0408      0.0962
         6         0.0000      0.0001     -0.0445      0.0020      0.0046
         7        -0.0001      0.0000      0.1352      0.0183      0.0419
         8        -0.1544     -0.0974     -0.0001      0.0333      0.0758
         9         0.0000      0.0000     -0.0454      0.0021      0.0044
        10         0.0571      0.0084      0.0000      0.0033      0.0070
        11         0.0000      0.0000     -0.0627      0.0039      0.0080
        12        -0.0574      0.0264      0.0000      0.0040      0.0080
        13         0.0000      0.0000      0.0420      0.0018      0.0035
        14         0.0000      0.0000      0.0539      0.0029      0.0057
        15         0.0346      0.0278      0.0000      0.0020      0.0038
        16        -0.0155     -0.2167      0.0000      0.0472      0.0867
        17        -0.0733      0.1618      0.0000      0.0316      0.0569
        18         0.0000      0.0000      0.0930      0.0087      0.0155
        19         0.0000      0.0001     -0.0835      0.0070      0.0121
        20         0.0000     -0.0001     -0.0470      0.0022      0.0038
 Ground to excited state transition magnetic dipole moments (Au):
       state          X           Y           Z
         1        -0.9025     -0.4034      0.0000
         2         0.0000      0.0000      0.5508
         3         0.0050      0.5752      0.0002
         4         0.0000     -0.0003      0.3424
         5         0.0000      0.0000     -0.1556
         6         0.0423     -0.1005      0.0001
         7        -0.0411      0.3179      0.0001
         8         0.0000     -0.0001      0.4003
         9        -0.0501      0.0990      0.0000
        10         0.0000      0.0000      0.0611
        11         0.1930     -0.3379      0.0000
        12        -0.0001      0.0002      0.0545
        13        -0.8696      0.6331      0.0000
        14         0.4378     -1.0145      0.0001
        15        -0.0002      0.0006      0.1598
        16         0.0000      0.0000     -0.0269
        17         0.0000     -0.0001     -0.4037
        18         0.0512     -0.4642      0.0001
        19         0.0574     -0.3649      0.0001
        20         0.0493     -0.2052     -0.0003
 <0|del|b> * <b|rxdel|0> + <0|del|b> * <b|delr+rdel|0>
 Rotatory Strengths (R) in cgs (10**-40 erg-esu-cm/Gauss)
       state          XX          YY          ZZ    R(velocity)
         1         0.0003      0.0068      0.0035      0.0036
 Total R(velocity) tensor for State=          1
                 1             2             3 
      1   0.346534D-03 -0.228634D-02  0.000000D+00
      2   0.151343D-02  0.680930D-02  0.000000D+00
      3  -0.201632D+02 -0.991724D+01  0.354050D-02
         2        -0.0176     -0.0076      0.0136     -0.0038
 Total R(velocity) tensor for State=          2
                 1             2             3 
      1  -0.175706D-01 -0.124593D-01  0.376441D+03
      2  -0.179682D-02 -0.756644D-02  0.448238D+02
      3  -0.200892D+00  0.413734D+01  0.136301D-01
         3        -0.0616     -0.0032     -0.0063     -0.0237
 Total R(velocity) tensor for State=          3
                 1             2             3 
      1  -0.616210D-01 -0.142997D+00 -0.250144D-04
      2  -0.132637D-01 -0.319301D-02 -0.174040D-04
      3  -0.195755D+01  0.804630D+01 -0.627975D-02
         4         0.0677      0.0023     -0.0009      0.0230
 Total R(velocity) tensor for State=          4
                 1             2             3 
      1   0.676982D-01  0.132225D+00 -0.974399D+02
      2   0.172589D-01  0.226971D-02 -0.735951D+02
      3   0.675293D+01  0.194573D+02 -0.947040D-03
         5         0.0205      0.0038     -0.0014      0.0076
 Total R(velocity) tensor for State=          5
                 1             2             3 
      1   0.205411D-01  0.834748D-02 -0.399937D+02
      2   0.134777D-01  0.376107D-02  0.202378D+01
      3   0.142496D+02  0.410638D+01 -0.139125D-02
         6        -0.0219     -0.0037     -0.0024     -0.0093
 Total R(velocity) tensor for State=          6
                 1             2             3 
      1  -0.218753D-01 -0.863679D-02 -0.771558D-05
      2  -0.151512D-01 -0.373634D-02 -0.150993D-05
      3  -0.230478D+01 -0.181897D+01 -0.236485D-02
         7         0.0161      0.0148     -0.0022      0.0096
 Total R(velocity) tensor for State=          7
                 1             2             3 
      1   0.160553D-01  0.504844D-01  0.160513D-04
      2  -0.846143D-02  0.147939D-01  0.000000D+00
      3   0.872849D+01 -0.324219D+02 -0.215406D-02
         8        -0.0239     -0.0142      0.0132     -0.0083
 Total R(velocity) tensor for State=          8
                 1             2             3 
      1  -0.239017D-01 -0.440503D-01  0.149975D+03
      2   0.897635D-02 -0.141584D-01 -0.132336D+00
      3  -0.591828D+01  0.938258D+01  0.131805D-01
         9         0.0006      0.0003     -0.0012     -0.0001
 Total R(velocity) tensor for State=          9
                 1             2             3 
      1   0.620471D-03 -0.245092D-02  0.000000D+00
      2  -0.514003D-03  0.292675D-03  0.000000D+00
      3  -0.392527D+01 -0.138621D+01 -0.123008D-02
        10        -0.0003      0.0010      0.0005      0.0004
 Total R(velocity) tensor for State=         10
                 1             2             3 
      1  -0.279963D-03 -0.182112D-03 -0.108551D+02
      2  -0.182667D-03  0.100373D-02 -0.122855D+01
      3  -0.108170D+01  0.733881D+01  0.549651D-03
        11        -0.0063     -0.0174     -0.0016     -0.0085
 Total R(velocity) tensor for State=         11
                 1             2             3 
      1  -0.632314D-02 -0.218143D-01 -0.296254D-05
      2  -0.176137D-01 -0.174422D-01  0.192798D-05
      3   0.435283D+01 -0.521320D+00 -0.161184D-02
        12         0.0049      0.0189      0.0018      0.0085
 Total R(velocity) tensor for State=         12
                 1             2             3 
      1   0.486491D-02  0.238895D-01 -0.138216D+02
      2   0.166010D-01  0.188696D-01  0.178017D+02
      3   0.738041D+00  0.160211D+01  0.178875D-02
        13        -0.0045     -0.0042     -0.0044     -0.0044
 Total R(velocity) tensor for State=         13
                 1             2             3 
      1  -0.451462D-02 -0.232912D-02  0.000000D+00
      2  -0.565521D-02 -0.424760D-02  0.000000D+00
      3   0.326161D+02 -0.235916D+02 -0.436297D-02
        14        -0.0200      0.0281     -0.0130     -0.0016
 Total R(velocity) tensor for State=         14
                 1             2             3 
      1  -0.199585D-01  0.394201D-01 -0.514070D-05
      2  -0.192868D-01  0.280921D-01 -0.114053D-05
      3  -0.104796D+02  0.477362D+02 -0.130458D-01
        15         0.0158     -0.0202      0.0130      0.0029
 Total R(velocity) tensor for State=         15
                 1             2             3 
      1   0.157627D-01 -0.312388D-01 -0.911114D+01
      2   0.150806D-01 -0.201680D-01 -0.110220D+01
      3   0.294096D+01 -0.365873D+01  0.130204D-01
        16         0.0165     -0.0001     -0.0069      0.0032
 Total R(velocity) tensor for State=         16
                 1             2             3 
      1   0.165148D-01  0.149359D-02 -0.162070D+03
      2   0.116977D-01 -0.129321D-03 -0.428911D+02
      3  -0.144515D+02  0.103466D+01 -0.691638D-02
        17        -0.0350     -0.0053     -0.0108     -0.0170
 Total R(velocity) tensor for State=         17
                 1             2             3 
      1  -0.350322D-01 -0.550319D-02 -0.882529D+02
      2   0.115466D-01 -0.527131D-02  0.894248D+02
      3   0.147067D+02  0.666083D+01 -0.107733D-01
        18         0.0297      0.0066      0.0031      0.0131
 Total R(velocity) tensor for State=         18
                 1             2             3 
      1   0.297132D-01  0.363913D-02  0.000000D+00
      2  -0.988874D-02  0.660497D-02  0.214121D-05
      3  -0.247421D+02  0.784762D+01  0.307066D-02
        19        -0.0376     -0.0047     -0.0106     -0.0177
 Total R(velocity) tensor for State=         19
                 1             2             3 
      1  -0.376340D-01 -0.110282D-01 -0.107470D-04
      2  -0.135236D-01 -0.473674D-02 -0.436282D-05
      3   0.149878D+02 -0.186245D+02 -0.106203D-01
        20         0.0523      0.0097      0.0234      0.0285
 Total R(velocity) tensor for State=         20
                 1             2             3 
      1   0.522630D-01  0.304860D-01 -0.421230D-04
      2   0.423588D-01  0.973663D-02  0.128052D-04
      3  -0.131437D+00 -0.751771D+01  0.234377D-01
 1/2[<0|r|b>*<b|rxdel|0> + (<0|rxdel|b>*<b|r|0>)*]
 Rotatory Strengths (R) in cgs (10**-40 erg-esu-cm/Gauss)
       state          XX          YY          ZZ     R(length)     R(au)
         1         0.0106     -0.0013      0.0020      0.0037      0.0000
         2         0.0120      0.0006     -0.0244     -0.0039      0.0000
         3         0.0013     -0.0449     -0.0282     -0.0239     -0.0001
         4        -0.0140      0.0443      0.0392      0.0232      0.0000
         5         0.0031      0.0155      0.0046      0.0077      0.0000
         6        -0.0015     -0.0193     -0.0074     -0.0094      0.0000
         7         0.0059     -0.0194      0.0432      0.0099      0.0000
         8         0.0048      0.0221     -0.0527     -0.0086      0.0000
         9        -0.0017      0.0004      0.0008     -0.0001      0.0000
        10         0.0018      0.0000     -0.0002      0.0005      0.0000
        11        -0.0096     -0.0109     -0.0060     -0.0089      0.0000
        12         0.0138      0.0099      0.0031      0.0090      0.0000
        13        -0.0068     -0.0060     -0.0027     -0.0052      0.0000
        14         0.0309     -0.0465      0.0144     -0.0004      0.0000
        15        -0.0201      0.0382     -0.0117      0.0021      0.0000
        16        -0.0010      0.0107      0.0002      0.0033      0.0000
        17        -0.0031     -0.0324     -0.0141     -0.0165      0.0000
        18         0.0005      0.0206      0.0167      0.0126      0.0000
        19         0.0009     -0.0362     -0.0153     -0.0169      0.0000
        20         0.0041      0.0551      0.0243      0.0278      0.0001
  1/2[<0|del|b>*<b|r|0> + (<0|r|b>*<b|del|0>)*] (Au)
       state          X           Y           Z        Dip. S.   Osc.(frdel)
         1         0.0000      0.0000     -0.0008      0.0008      0.0005
         2        -0.3979     -0.0009      0.0000      0.3989      0.2659
         3         0.0000      0.0000     -0.0172      0.0172      0.0115
         4        -0.1290     -0.0153      0.0000      0.1443      0.0962
         5        -0.0109     -0.1356      0.0000      0.1465      0.0977
         6         0.0000      0.0000     -0.0069      0.0069      0.0046
         7         0.0000      0.0000     -0.0648      0.0648      0.0432
         8        -0.0817     -0.0330      0.0000      0.1147      0.0765
         9         0.0000      0.0000     -0.0064      0.0064      0.0043
        10        -0.0120     -0.0003      0.0000      0.0123      0.0082
        11         0.0000      0.0000     -0.0125      0.0125      0.0083
        12        -0.0106     -0.0022      0.0000      0.0128      0.0085
        13         0.0000      0.0000     -0.0048      0.0048      0.0032
        14         0.0000      0.0000     -0.0087      0.0087      0.0058
        15        -0.0046     -0.0024      0.0000      0.0070      0.0047
        16        -0.0005     -0.1329      0.0000      0.1334      0.0889
        17        -0.0149     -0.0688      0.0000      0.0837      0.0558
        18         0.0000      0.0000     -0.0222      0.0222      0.0148
        19         0.0000      0.0000     -0.0160      0.0160      0.0107
        20         0.0000      0.0000     -0.0055      0.0055      0.0037
 Ground to excited state transition densities written to RWF  633

 Excitation energies and oscillator strengths:
 
 Excited state symmetry could not be determined.
 Excited State   1:      Singlet-?Sym    5.1200 eV  242.15 nm  f=0.0004  <S**2>=0.000
      12 -> 14         0.69619
 This state for optimization and/or second-order correction.
 Copying the excited state density for this state as the 1-particle RhoCI density.
 
 Excited state symmetry could not be determined.
 Excited State   2:      Singlet-?Sym    6.5929 eV  188.06 nm  f=0.2701  <S**2>=0.000
      11 -> 14         0.65235
      11 -> 17        -0.15630
      12 -> 13         0.16136
 
 Excited state symmetry could not be determined.
 Excited State   3:      Singlet-?Sym    6.9703 eV  177.87 nm  f=0.0119  <S**2>=0.000
      11 -> 13         0.66428
      11 -> 15         0.10663
      11 -> 19        -0.13178
      11 -> 20        -0.12777
 
 Excited state symmetry could not be determined.
 Excited State   4:      Singlet-?Sym    7.0092 eV  176.89 nm  f=0.0967  <S**2>=0.000
      11 -> 14        -0.12938
      12 -> 13         0.55914
      12 -> 15        -0.16884
      12 -> 16         0.30016
      12 -> 18        -0.16963
      12 -> 20        -0.10836
 
 Excited state symmetry could not be determined.
 Excited State   5:      Singlet-?Sym    7.6818 eV  161.40 nm  f=0.0992  <S**2>=0.000
      12 -> 15         0.62865
      12 -> 16         0.18568
      12 -> 19        -0.15604
      12 -> 21        -0.10917
 
 Excited state symmetry could not be determined.
 Excited State   6:      Singlet-?Sym    7.7317 eV  160.36 nm  f=0.0046  <S**2>=0.000
      11 -> 13        -0.11553
      11 -> 15         0.65536
      11 -> 21        -0.16043
 
 Excited state symmetry could not be determined.
 Excited State   7:      Singlet-?Sym    7.9129 eV  156.69 nm  f=0.0446  <S**2>=0.000
      11 -> 16         0.65549
      11 -> 18        -0.17073
      11 -> 23        -0.10809
 
 Excited state symmetry could not be determined.
 Excited State   8:      Singlet-?Sym    7.9730 eV  155.51 nm  f=0.0772  <S**2>=0.000
      12 -> 13        -0.36275
      12 -> 15        -0.12660
      12 -> 16         0.50597
      12 -> 18        -0.26475
 
 Excited state symmetry could not be determined.
 Excited State   9:      Singlet-?Sym    8.4490 eV  146.74 nm  f=0.0041  <S**2>=0.000
      12 -> 17         0.68941
      12 -> 25         0.10336
 
 Excited state symmetry could not be determined.
 Excited State  10:      Singlet-?Sym    8.6416 eV  143.47 nm  f=0.0096  <S**2>=0.000
      11 -> 14         0.16791
      11 -> 17         0.67695
 
 Excited state symmetry could not be determined.
 Excited State  11:      Singlet-?Sym    8.9557 eV  138.44 nm  f=0.0087  <S**2>=0.000
       9 -> 14        -0.10345
      11 -> 16         0.14817
      11 -> 18         0.64151
      11 -> 24        -0.14205
 
 Excited state symmetry could not be determined.
 Excited State  12:      Singlet-?Sym    9.0026 eV  137.72 nm  f=0.0090  <S**2>=0.000
      12 -> 16         0.31715
      12 -> 18         0.60132
      12 -> 19         0.11459
 
 Excited state symmetry could not be determined.
 Excited State  13:      Singlet-?Sym    9.2510 eV  134.02 nm  f=0.0030  <S**2>=0.000
       9 -> 14         0.59426
      11 -> 19         0.33915
 
 Excited state symmetry could not be determined.
 Excited State  14:      Singlet-?Sym    9.2938 eV  133.41 nm  f=0.0059  <S**2>=0.000
       9 -> 14        -0.34185
      11 -> 19         0.57723
 
 Excited state symmetry could not be determined.
 Excited State  15:      Singlet-?Sym    9.3240 eV  132.97 nm  f=0.0057  <S**2>=0.000
      10 -> 14         0.10658
      12 -> 15         0.15705
      12 -> 19         0.64279
      12 -> 21        -0.10364
 
 Excited state symmetry could not be determined.
 Excited State  16:      Singlet-?Sym    9.8732 eV  125.58 nm  f=0.0912  <S**2>=0.000
      10 -> 14        -0.56838
      12 -> 20         0.26055
      12 -> 23         0.24192
      12 -> 24        -0.10515
 
 Excited state symmetry could not be determined.
 Excited State  17:      Singlet-?Sym   10.0699 eV  123.12 nm  f=0.0547  <S**2>=0.000
      10 -> 14         0.34073
      11 -> 22        -0.11238
      12 -> 20         0.50275
      12 -> 23         0.24614
 
 Excited state symmetry could not be determined.
 Excited State  18:      Singlet-?Sym   10.1365 eV  122.32 nm  f=0.0142  <S**2>=0.000
      10 -> 13        -0.12238
      10 -> 15        -0.11882
      11 -> 13         0.13667
      11 -> 20         0.57615
      11 -> 21         0.23044
      11 -> 23         0.18921
 
 Excited state symmetry could not be determined.
 Excited State  19:      Singlet-?Sym   10.4238 eV  118.94 nm  f=0.0094  <S**2>=0.000
      10 -> 13         0.34583
      10 -> 20        -0.10973
      11 -> 16         0.11176
      11 -> 23         0.49908
      11 -> 24        -0.21460
 
 Excited state symmetry could not be determined.
 Excited State  20:      Singlet-?Sym   10.4382 eV  118.78 nm  f=0.0035  <S**2>=0.000
      10 -> 13         0.10083
      11 -> 15        -0.18729
      11 -> 20         0.29808
      11 -> 21        -0.54950
      11 -> 26        -0.12295
 SavETr:  write IOETrn=   770 NScale= 10 NData=  16 NLR=1 LETran=     370.
 FoFJK:  IHMeth= 1 ICntrl=     0 DoSepK=T KAlg= 1 I1Cent= 0 FoldK=F
 FoFJK:  IHMeth= 1 ICntrl=     0 DoSepK=T KAlg= 1 I1Cent= 0 FoldK=F
          IDoAtm=111111
 NEqPCM:  Using equilibrium solvation (IEInf=0, Eps=  78.3553, EpsInf=   1.7778)
          Differentiating once with respect to electric field.
                with respect to dipole field.
          Differentiating once with respect to nuclear coordinates.
          There are     1 degrees of freedom in the 1st order CPHF.  IDoFFX=0.
 FoFJK:  IHMeth= 1 ICntrl=     0 DoSepK=T KAlg= 1 I1Cent= 0 FoldK=F
 LinEq1:  Iter=  0 NonCon=     1 RMS=3.91D-02 Max=6.41D-01
 AX will form     1 AO Fock derivatives at one time.
 FoFJK:  IHMeth= 1 ICntrl=     0 DoSepK=T KAlg= 1 I1Cent= 0 FoldK=F
 LinEq1:  Iter=  1 NonCon=     1 RMS=8.20D-03 Max=9.91D-02
 FoFJK:  IHMeth= 1 ICntrl=     0 DoSepK=T KAlg= 1 I1Cent= 0 FoldK=F
 LinEq1:  Iter=  2 NonCon=     1 RMS=4.51D-03 Max=4.56D-02
 FoFJK:  IHMeth= 1 ICntrl=     0 DoSepK=T KAlg= 1 I1Cent= 0 FoldK=F
 LinEq1:  Iter=  3 NonCon=     1 RMS=1.73D-03 Max=1.47D-02
 FoFJK:  IHMeth= 1 ICntrl=     0 DoSepK=T KAlg= 1 I1Cent= 0 FoldK=F
 LinEq1:  Iter=  4 NonCon=     1 RMS=7.50D-04 Max=5.80D-03
 FoFJK:  IHMeth= 1 ICntrl=     0 DoSepK=T KAlg= 1 I1Cent= 0 FoldK=F
 LinEq1:  Iter=  5 NonCon=     1 RMS=2.17D-04 Max=1.74D-03
 FoFJK:  IHMeth= 1 ICntrl=     0 DoSepK=T KAlg= 1 I1Cent= 0 FoldK=F
 LinEq1:  Iter=  6 NonCon=     1 RMS=4.65D-05 Max=6.69D-04
 FoFJK:  IHMeth= 1 ICntrl=     0 DoSepK=T KAlg= 1 I1Cent= 0 FoldK=F
 LinEq1:  Iter=  7 NonCon=     1 RMS=9.62D-06 Max=9.73D-05
 FoFJK:  IHMeth= 1 ICntrl=     0 DoSepK=T KAlg= 1 I1Cent= 0 FoldK=F
 LinEq1:  Iter=  8 NonCon=     1 RMS=1.96D-06 Max=1.53D-05
 FoFJK:  IHMeth= 1 ICntrl=     0 DoSepK=T KAlg= 1 I1Cent= 0 FoldK=F
 LinEq1:  Iter=  9 NonCon=     1 RMS=2.72D-07 Max=1.60D-06
 FoFJK:  IHMeth= 1 ICntrl=     0 DoSepK=T KAlg= 1 I1Cent= 0 FoldK=F
 LinEq1:  Iter= 10 NonCon=     1 RMS=3.45D-08 Max=3.23D-07
 FoFJK:  IHMeth= 1 ICntrl=     0 DoSepK=T KAlg= 1 I1Cent= 0 FoldK=F
 LinEq1:  Iter= 11 NonCon=     1 RMS=5.42D-09 Max=3.54D-08
 FoFJK:  IHMeth= 1 ICntrl=     0 DoSepK=T KAlg= 1 I1Cent= 0 FoldK=F
 LinEq1:  Iter= 12 NonCon=     1 RMS=1.10D-09 Max=8.67D-09
 FoFJK:  IHMeth= 1 ICntrl=     0 DoSepK=T KAlg= 1 I1Cent= 0 FoldK=F
 LinEq1:  Iter= 13 NonCon=     1 RMS=1.28D-10 Max=1.32D-09
 FoFJK:  IHMeth= 1 ICntrl=     0 DoSepK=T KAlg= 1 I1Cent= 0 FoldK=F
[...]
 Excited State  10:      Singlet-?Sym    8.5287 eV  145.37 nm  f=0.0104  <S**2>=0.000
      11 -> 14        -0.14394
      11 -> 17        -0.68016
 
 Excited state symmetry could not be determined.
 Excited State  11:      Singlet-?Sym    8.7230 eV  142.13 nm  f=0.0027  <S**2>=0.000
       9 -> 14         0.65100
      11 -> 18         0.21845
 
 Excited state symmetry could not be determined.
 Excited State  12:      Singlet-?Sym    8.8408 eV  140.24 nm  f=0.0049  <S**2>=0.000
       9 -> 14         0.24524
      11 -> 16        -0.15183
      11 -> 18        -0.60235
      11 -> 24         0.13712
 
 Excited state symmetry could not be determined.
 Excited State  13:      Singlet-?Sym    8.8668 eV  139.83 nm  f=0.0103  <S**2>=0.000
      12 -> 16         0.31941
      12 -> 18         0.59175
      12 -> 19         0.14336
 
 Excited state symmetry could not be determined.
 Excited State  14:      Singlet-?Sym    9.1605 eV  135.35 nm  f=0.0032  <S**2>=0.000
      11 -> 13        -0.10578
      11 -> 19        -0.66718
 
 Excited state symmetry could not be determined.
 Excited State  15:      Singlet-?Sym    9.2120 eV  134.59 nm  f=0.0069  <S**2>=0.000
      10 -> 14         0.14137
      12 -> 15         0.16048
      12 -> 18        -0.11190
      12 -> 19         0.63159
 
 Excited state symmetry could not be determined.
 Excited State  16:      Singlet-?Sym    9.5432 eV  129.92 nm  f=0.1358  <S**2>=0.000
      10 -> 14        -0.65085
      12 -> 19         0.12799
      12 -> 23         0.13738
 
 Excited state symmetry could not be determined.
 Excited State  17:      Singlet-?Sym    9.9373 eV  124.77 nm  f=0.0230  <S**2>=0.000
      10 -> 14         0.13916
      12 -> 20         0.52245
      12 -> 23         0.36604
      12 -> 24        -0.14053
      12 -> 27        -0.10549
 
 Excited state symmetry could not be determined.
 Excited State  18:      Singlet-?Sym   10.0304 eV  123.61 nm  f=0.0147  <S**2>=0.000
      10 -> 13        -0.15977
      10 -> 15        -0.13621
      11 -> 13        -0.12701
      11 -> 20        -0.54046
      11 -> 21        -0.23616
      11 -> 23        -0.23801
 
 Excited state symmetry could not be determined.
 Excited State  19:      Singlet-?Sym   10.2805 eV  120.60 nm  f=0.0260  <S**2>=0.000
      10 -> 13         0.41334
      10 -> 20        -0.12011
      11 -> 16        -0.10065
      11 -> 21         0.15637
      11 -> 23        -0.44581
      11 -> 24         0.20016
 
 Excited state symmetry could not be determined.
 Excited State  20:      Singlet-?Sym   10.3194 eV  120.15 nm  f=0.0001  <S**2>=0.000
      11 -> 15         0.16762
      11 -> 20        -0.30878
      11 -> 21         0.53581
      11 -> 23         0.13908
      11 -> 26         0.14220
 SavETr:  write IOETrn=   770 NScale= 10 NData=  16 NLR=1 LETran=     370.
 FoFJK:  IHMeth= 1 ICntrl=     0 DoSepK=T KAlg= 1 I1Cent= 0 FoldK=F
 FoFJK:  IHMeth= 1 ICntrl=     0 DoSepK=T KAlg= 1 I1Cent= 0 FoldK=F
          IDoAtm=111111
 NEqPCM:  Using equilibrium solvation (IEInf=0, Eps=  78.3553, EpsInf=   1.7778)
          Differentiating once with respect to electric field.
                with respect to dipole field.
          Differentiating once with respect to nuclear coordinates.
          There are     1 degrees of freedom in the 1st order CPHF.  IDoFFX=0.
 FoFJK:  IHMeth= 1 ICntrl=     0 DoSepK=T KAlg= 1 I1Cent= 0 FoldK=F
 LinEq1:  Iter=  0 NonCon=     1 RMS=4.35D-02 Max=7.63D-01
 AX will form     1 AO Fock derivatives at one time.
 FoFJK:  IHMeth= 1 ICntrl=     0 DoSepK=T KAlg= 1 I1Cent= 0 FoldK=F
 LinEq1:  Iter=  1 NonCon=     1 RMS=8.81D-03 Max=1.08D-01
 FoFJK:  IHMeth= 1 ICntrl=     0 DoSepK=T KAlg= 1 I1Cent= 0 FoldK=F
 LinEq1:  Iter=  2 NonCon=     1 RMS=4.74D-03 Max=4.81D-02
 FoFJK:  IHMeth= 1 ICntrl=     0 DoSepK=T KAlg= 1 I1Cent= 0 FoldK=F
 LinEq1:  Iter=  3 NonCon=     1 RMS=1.89D-03 Max=1.61D-02
 FoFJK:  IHMeth= 1 ICntrl=     0 DoSepK=T KAlg= 1 I1Cent= 0 FoldK=F
 LinEq1:  Iter=  4 NonCon=     1 RMS=8.24D-04 Max=6.33D-03
 FoFJK:  IHMeth= 1 ICntrl=     0 DoSepK=T KAlg= 1 I1Cent= 0 FoldK=F
 LinEq1:  Iter=  5 NonCon=     1 RMS=2.52D-04 Max=2.36D-03
 FoFJK:  IHMeth= 1 ICntrl=     0 DoSepK=T KAlg= 1 I1Cent= 0 FoldK=F
 LinEq1:  Iter=  6 NonCon=     1 RMS=5.91D-05 Max=8.89D-04
 FoFJK:  IHMeth= 1 ICntrl=     0 DoSepK=T KAlg= 1 I1Cent= 0 FoldK=F
 LinEq1:  Iter=  7 NonCon=     1 RMS=1.20D-05 Max=1.05D-04
 FoFJK:  IHMeth= 1 ICntrl=     0 DoSepK=T KAlg= 1 I1Cent= 0 FoldK=F
 LinEq1:  Iter=  8 NonCon=     1 RMS=2.32D-06 Max=1.65D-05
 FoFJK:  IHMeth= 1 ICntrl=     0 DoSepK=T KAlg= 1 I1Cent= 0 FoldK=F
 LinEq1:  Iter=  9 NonCon=     1 RMS=3.30D-07 Max=2.09D-06
 FoFJK:  IHMeth= 1 ICntrl=     0 DoSepK=T KAlg= 1 I1Cent= 0 FoldK=F
 LinEq1:  Iter= 10 NonCon=     1 RMS=4.47D-08 Max=3.64D-07
 FoFJK:  IHMeth= 1 ICntrl=     0 DoSepK=T KAlg= 1 I1Cent= 0 FoldK=F
 LinEq1:  Iter= 11 NonCon=     1 RMS=6.72D-09 Max=4.90D-08
 FoFJK:  IHMeth= 1 ICntrl=     0 DoSepK=T KAlg= 1 I1Cent= 0 FoldK=F
 LinEq1:  Iter= 12 NonCon=     1 RMS=1.41D-09 Max=1.02D-08
 FoFJK:  IHMeth= 1 ICntrl=     0 DoSepK=T KAlg= 1 I1Cent= 0 FoldK=F
 LinEq1:  Iter= 13 NonCon=     1 RMS=1.84D-10 Max=1.56D-09
 FoFJK:  IHMeth= 1 ICntrl=     0 DoSepK=T KAlg= 1 I1Cent= 0 FoldK=F
 LinEq1:  Iter= 14 NonCon=     0 RMS=2.74D-11 Max=5.03D-10
 Linear equations converged to 1.000D-10 1.000D-09 after    14 iterations.
 FoFJK:  IHMeth= 1 ICntrl=     0 DoSepK=T KAlg= 1 I1Cent= 0 FoldK=F
 End of Minotr Frequency-dependent properties file   721 does not exist.
 End of Minotr Frequency-dependent properties file   722 does not exist.
 D1PCM: PCM CHGder 1st derivatives, ID1Alg=3 FixD1E=F DoIter=F DoCFld=F I1PDM=6.
 Calling FoFJK, ICntrl=      5127 FMM=F ISym2X=0 I1Cent= 0 IOpClX= 0 NMat=1 NMatS=1 NMatT=0.
 FoFJK:  IHMeth= 1 ICntrl=  5127 DoSepK=T KAlg= 1 I1Cent= 0 FoldK=F
 -------------------------------------------------------------------
 Center     Atomic                   Forces (Hartrees/Bohr)
 Number     Number              X              Y              Z
 -------------------------------------------------------------------
      1        6           0.000294963   -0.000279813    0.000022799
      2        7          -0.000481903    0.000289824   -0.000028856
      3        8          -0.000029202    0.000124900   -0.000005972
      4        1           0.000174331   -0.000015716    0.000010173
      5        1           0.000105832   -0.000161712    0.000007275
      6        1          -0.000064021    0.000042517   -0.000005420
 -------------------------------------------------------------------
 Cartesian Forces:  Max     0.000481903 RMS     0.000178489

 GradGradGradGradGradGradGradGradGradGradGradGradGradGradGradGradGradGrad
 Berny optimization.
 Using GEDIIS/GDIIS optimizer.
 Internal  Forces:  Max     0.000232391 RMS     0.000107499
 Search for a local minimum.
 Step number   5 out of a maximum of   25
 All quantities printed in internal units (Hartrees-Bohrs-Radians)
 Mixed Optimization -- En-DIIS/RFO-DIIS
 Swaping is turned off.
 Update second derivatives using D2CorX and points    1    2    3    4    5
 DE= -1.80D-05 DEPred=-1.71D-05 R= 1.05D+00
 SS=  1.41D+00  RLast= 1.12D-02 DXNew= 8.4853D-01 3.3697D-02
 Trust test= 1.05D+00 RLast= 1.12D-02 DXMaxT set to 5.05D-01
 The second derivative matrix:
                          R1        R2        R3        R4        R5
           R1           0.49587
           R2           0.09443   0.57923
           R3           0.00986   0.03269   0.33725
           R4           0.00743  -0.00015  -0.00062   0.45697
           R5          -0.00685  -0.00937  -0.00009  -0.00021   0.46432
           A1           0.01068   0.08909  -0.00539  -0.00161  -0.00132
           A2          -0.00082  -0.04616   0.00059   0.00074  -0.00062
           A3          -0.00867   0.00391  -0.00376  -0.00072   0.00363
           A4           0.00244   0.00703  -0.00120   0.00026  -0.00191
           A5           0.03337  -0.01322   0.00244  -0.00196  -0.00154
           A6          -0.03581   0.00620  -0.00124   0.00170   0.00346
           D1          -0.00136   0.00087  -0.00004   0.00008   0.00004
           D2           0.00008  -0.00006   0.00000   0.00000  -0.00001
           D3          -0.00030   0.00019  -0.00001   0.00002   0.00001
           D4           0.00115  -0.00073   0.00003  -0.00007  -0.00004
                          A1        A2        A3        A4        A5
           A1           0.22558
           A2           0.01599   0.15468
           A3          -0.01112   0.00367   0.16419
           A4           0.00293   0.00212  -0.00376   0.16374
           A5           0.00010  -0.00025  -0.00406   0.00174   0.15414
           A6          -0.00304  -0.00187   0.00782  -0.00549   0.00412
           D1          -0.00016  -0.00009   0.00025  -0.00024   0.00025
           D2           0.00001   0.00000  -0.00001   0.00001  -0.00001
           D3          -0.00004  -0.00001   0.00005  -0.00005   0.00005
           D4           0.00014   0.00008  -0.00021   0.00020  -0.00021
                          A6        D1        D2        D3        D4
           A6           0.16137
           D1          -0.00001   0.02455
           D2           0.00001   0.00000   0.02455
           D3          -0.00001   0.00000   0.00000   0.02455
           D4           0.00001   0.00000   0.00000   0.00000   0.02455
     Eigenvalues ---    0.02454   0.02455   0.02455   0.13602   0.14287
     Eigenvalues ---    0.16619   0.19894   0.33449   0.44586   0.46029
     Eigenvalues ---    0.46406   0.661451000.000001000.000001000.00000
 En-DIIS/RFO-DIIS IScMMF=        0 using points:     5    4
 RFO step:  Lambda=-3.79655517D-07.
 DIIS coeffs:      1.05572     -0.05572
 Iteration  1 RMS(Cart)=  0.00049616 RMS(Int)=  0.00000028
 Iteration  2 RMS(Cart)=  0.00000025 RMS(Int)=  0.00000003
 Variable       Old X    -DE/DX   Delta X   Delta X   Delta X     New X
                                  (DIIS)     (GDIIS)  (Total)
    R1        2.61663  -0.00023  -0.00039  -0.00028  -0.00067   2.61596
    R2        2.52553  -0.00004   0.00022  -0.00024  -0.00002   2.52551
    R3        2.05415   0.00004  -0.00004   0.00018   0.00014   2.05430
    R4        1.90096   0.00002   0.00003   0.00003   0.00006   1.90103
    R5        1.90058   0.00001  -0.00001   0.00004   0.00003   1.90061
    A1        2.03637   0.00012  -0.00010   0.00066   0.00057   2.03694
    A2        2.16114   0.00001  -0.00004   0.00013   0.00009   2.16123
    A3        2.08568  -0.00014   0.00014  -0.00079  -0.00065   2.08502
    A4        2.11451   0.00012  -0.00017   0.00084   0.00067   2.11518
    A5        2.08674   0.00011   0.00032   0.00054   0.00087   2.08760
    A6        2.08194  -0.00023  -0.00016  -0.00138  -0.00154   2.08040
    D1       -0.00061  -0.00001  -0.00002  -0.00058  -0.00060  -0.00120
    D2       -3.14131   0.00000   0.00001   0.00001   0.00001  -3.14130
    D3        3.14126   0.00000  -0.00001  -0.00010  -0.00011   3.14115
    D4        0.00056   0.00001   0.00002   0.00049   0.00050   0.00106
         Item               Value     Threshold  Converged?
 Maximum Force            0.000232     0.000450     YES
 RMS     Force            0.000107     0.000300     YES
 Maximum Displacement     0.001099     0.001800     YES
 RMS     Displacement     0.000496     0.001200     YES
 Predicted change in Energy=-4.365093D-07
 Optimization completed.
    -- Stationary point found.
                           ----------------------------
                           !   Optimized Parameters   !
                           ! (Angstroms and Degrees)  !
 --------------------------                            --------------------------
 ! Name  Definition              Value          Derivative Info.                !
 --------------------------------------------------------------------------------
 ! R1    R(1,2)                  1.3847         -DE/DX =   -0.0002              !
 ! R2    R(1,3)                  1.3365         -DE/DX =    0.0                 !
 ! R3    R(1,6)                  1.087          -DE/DX =    0.0                 !
 ! R4    R(2,4)                  1.0059         -DE/DX =    0.0                 !
 ! R5    R(2,5)                  1.0057         -DE/DX =    0.0                 !
 ! A1    A(2,1,3)              116.6753         -DE/DX =    0.0001              !
 ! A2    A(2,1,6)              123.8241         -DE/DX =    0.0                 !
 ! A3    A(3,1,6)              119.5005         -DE/DX =   -0.0001              !
 ! A4    A(1,2,4)              121.1526         -DE/DX =    0.0001              !
 ! A5    A(1,2,5)              119.5611         -DE/DX =    0.0001              !
 ! A6    A(4,2,5)              119.2863         -DE/DX =   -0.0002              !
 ! D1    D(3,1,2,4)             -0.0348         -DE/DX =    0.0                 !
 ! D2    D(3,1,2,5)           -179.9838         -DE/DX =    0.0                 !
 ! D3    D(6,1,2,4)            179.9809         -DE/DX =    0.0                 !
 ! D4    D(6,1,2,5)              0.0319         -DE/DX =    0.0                 !
 --------------------------------------------------------------------------------
 GradGradGradGradGradGradGradGradGradGradGradGradGradGradGradGradGradGrad

                          Input orientation:                          
 ---------------------------------------------------------------------
 Center     Atomic      Atomic             Coordinates (Angstroms)
 Number     Number       Type             X           Y           Z
 ---------------------------------------------------------------------
      1          6           0       -0.115594    0.472016    0.000036
      2          7           0        1.107654   -0.176788   -0.000130
      3          8           0       -1.205198   -0.301851   -0.000092
      4          1           0        1.164006   -1.181156    0.000187
      5          1           0        1.955911    0.363561    0.000204
      6          1           0       -0.227008    1.553303    0.000012
 ---------------------------------------------------------------------
                    Distance matrix (angstroms):
                    1          2          3          4          5
     1  C    0.000000
     2  N    1.384660   0.000000
     3  O    1.336453   2.316230   0.000000
     4  H    2.090539   1.005947   2.527113   0.000000
     5  H    2.074342   1.005742   3.230384   1.735876   0.000000
     6  H    1.087012   2.185072   2.097248   3.067928   2.486085
                    6
     6  H    0.000000
 Symmetry turned off by external request.
 Stoichiometry    CH3NO
 Framework group  C1[X(CH3NO)]
 Deg. of freedom    12
 Full point group                 C1      NOp   1
 Rotational constants (GHZ):     59.6496594     11.0382979      9.3146095

 **********************************************************************

            Population analysis using the SCF density.

 **********************************************************************

 Alpha  occ. eigenvalues --  -19.20613 -14.44989 -10.39472  -1.08648  -0.98739
 Alpha  occ. eigenvalues --   -0.71758  -0.62745  -0.57468  -0.48241  -0.46724
 Alpha  occ. eigenvalues --   -0.34311  -0.33901
 Alpha virt. eigenvalues --    0.01644   0.01843   0.03294   0.04338   0.07854
 Alpha virt. eigenvalues --    0.08103   0.09540   0.12984   0.14016   0.14903
 Alpha virt. eigenvalues --    0.16023   0.17772   0.20381   0.20749   0.20950
 Alpha virt. eigenvalues --    0.24924   0.25937   0.27861   0.29799   0.33832
 Alpha virt. eigenvalues --    0.35345   0.36398   0.39517   0.44040   0.44258
 Alpha virt. eigenvalues --    0.46513   0.48842   0.49577   0.50272   0.53731
 Alpha virt. eigenvalues --    0.54818   0.56552   0.57833   0.59098   0.67745
 Alpha virt. eigenvalues --    0.68205   0.71774   0.74227   0.79819   0.83266
 Alpha virt. eigenvalues --    0.86441   0.86456   0.93521   1.03516   1.05029
 Alpha virt. eigenvalues --    1.05988   1.11082   1.16705   1.23237   1.24840
 Alpha virt. eigenvalues --    1.28702   1.35181   1.40375   1.44718   1.50282
 Alpha virt. eigenvalues --    1.63280   1.64801   1.69662   1.74205   1.78828
 Alpha virt. eigenvalues --    1.79511   1.86509   1.91745   2.02594   2.05721
 Alpha virt. eigenvalues --    2.06502   2.13339   2.15146   2.21854   2.28148
 Alpha virt. eigenvalues --    2.42693   2.50732   2.54066   2.57238   2.68137
 Alpha virt. eigenvalues --    2.81795   2.98699   3.15729   3.25515   3.39830
 Alpha virt. eigenvalues --    3.44784   3.45355   3.64425   3.67187
          Condensed to atoms (all electrons):
              1          2          3          4          5          6
     1  C    4.666509   0.329589   0.248577  -0.161205  -0.156131   0.162507
     2  N    0.329589   5.914781  -0.075596   0.407340   0.369467  -0.069325
     3  O    0.248577  -0.075596   8.595983  -0.004206   0.005447  -0.085474
     4  H   -0.161205   0.407340  -0.004206   1.039413  -0.221742   0.033521
     5  H   -0.156131   0.369467   0.005447  -0.221742   1.048278   0.001231
     6  H    0.162507  -0.069325  -0.085474   0.033521   0.001231   1.167036
 Mulliken atomic charges:
              1
     1  C    0.910154
     2  N    0.123743
     3  O   -0.684731
     4  H   -0.093121
     5  H   -0.046550
     6  H   -0.209495
 Sum of Mulliken atomic charges =   0.00000
 Mulliken charges with hydrogens summed into heavy atoms:
              1
     1  C    0.700659
     2  N   -0.015927
     3  O   -0.684731
 Sum of Mulliken charges with hydrogens summed into heavy atoms =   0.00000
 Electronic spatial extent (au):  <R**2>=            152.8478
 Charge=              0.0000 electrons
 Dipole moment (field-independent basis, Debye):
    X=              5.5201    Y=              1.8383    Z=              0.0014  Tot=              5.8181
 Quadrupole moment (field-independent basis, Debye-Ang):
   XX=            -18.9372   YY=            -14.5915   ZZ=            -19.5790
   XY=             -2.0504   XZ=              0.0015   YZ=             -0.0005
 Traceless Quadrupole moment (field-independent basis, Debye-Ang):
   XX=             -1.2346   YY=              3.1111   ZZ=             -1.8764
   XY=             -2.0504   XZ=              0.0015   YZ=             -0.0005
 Octapole moment (field-independent basis, Debye-Ang**2):
  XXX=             19.1216  YYY=              1.0918  ZZZ=              0.0036  XYY=              3.6742
  XXY=              1.3056  XXZ=              0.0041  XZZ=             -0.4612  YZZ=              0.2632
  YYZ=              0.0017  XYZ=             -0.0003
 Hexadecapole moment (field-independent basis, Debye-Ang**3):
 XXXX=           -119.7523 YYYY=            -34.2032 ZZZZ=            -20.5360 XXXY=              1.0811
 XXXZ=              0.0046 YYYX=             -6.3824 YYYZ=             -0.0020 ZZZX=              0.0006
 ZZZY=             -0.0012 XXYY=            -25.3374 XXZZ=            -27.6993 YYZZ=            -10.8457
 XXYZ=             -0.0005 YYXZ=              0.0009 ZZXY=             -0.2540
 N-N= 6.857659396561D+01 E-N=-5.350294019085D+02  KE= 1.683859719851D+02
 1\1\GINC-CLODOMIRA\FOpt\RTD-CAM-B3LYP-FC\Aug-CC-pVDZ\C1H3N1O1\DIEGOA\2
 8-Oct-2019\0\\# cam-b3lyp/aug-cc-pvdz opt nosymm td(root=1,nstates=20)
  SCRF=PCM int(grid=ultrafine)\\Title\\0,1\C,-0.1155942697,0.4720161065
 ,0.0000357721\N,1.1076536261,-0.1767881348,-0.0001297619\O,-1.20519765
 77,-0.3018509595,-0.0000918965\H,1.1640058998,-1.1811555782,0.00018677
 24\H,1.9559106063,0.3635614724,0.0002044749\H,-0.2270082048,1.55330309
 36,0.000011639\\Version=EM64L-G09RevA.01\HF=-169.8454387\RMSD=8.928e-0
 9\RMSF=1.785e-04\Dipole=1.1282483,0.2291567,0.0004504\PG=C01 [X(C1H3N1
 O1)]\\@


 HICKORY, DICKORY, DOCK
 TWO MICE RAN UP THE CLOCK
 THE CLOCK STRUCK ONE...
 THE OTHER ESCAPED WITH MINOR INJURIES.
 Job cpu time:  0 days  1 hours  6 minutes 11.3 seconds.
 File lengths (MBytes):  RWF=     59 Int=      0 D2E=      0 Chk=      8 Scr=      1
 Normal termination of Gaussian 09 at Mon Oct 28 09:34:16 2019.
