Title                                                                   
Force     RTD-CAM-B3LYP-FC                                            Aug-CC-pVDZ         
Number of atoms                            I                6
Info1-9                                    I   N=           9
          14          14           0           0           0         100
           5         218           1
Charge                                     I                0
Multiplicity                               I                1
Number of electrons                        I               24
Number of alpha electrons                  I               12
Number of beta electrons                   I               12
Number of basis functions                  I               96
Number of independent functions            I               96
Number of point charges in /Mol/           I                0
Number of translation vectors              I                0
Atomic numbers                             I   N=           6
           6           7           8           1           1           1
Nuclear charges                            R   N=           6
  6.00000000E+00  7.00000000E+00  8.00000000E+00  1.00000000E+00  1.00000000E+00
  1.00000000E+00
Current cartesian coordinates              R   N=          18
 -2.80446696E-01  7.35880143E-01 -1.51178091E-05  2.03313745E+00 -3.04100398E-01
  1.13383568E-04 -2.26580242E+00 -4.61796155E-01 -1.43619186E-04  2.23366952E+00
 -2.20464521E+00  1.73854804E-04  3.59611482E+00  7.87938319E-01  2.91017824E-04
 -2.52641266E-01  2.82449617E+00 -9.44863066E-06
Force Field                                I                0
Int Atom Types                             I   N=           6
           0           0           0           0           0           0
MM charges                                 R   N=           6
  0.00000000E+00  0.00000000E+00  0.00000000E+00  0.00000000E+00  0.00000000E+00
  0.00000000E+00
Integer atomic weights                     I   N=           6
          12          14          16           1           1           1
Real atomic weights                        R   N=           6
  1.20000000E+01  1.40030740E+01  1.59949146E+01  1.00782504E+00  1.00782504E+00
  1.00782504E+00
Atom fragment info                         I   N=           6
           0           0           0           0           0           0
Atom residue num                           I   N=           6
           0           0           0           0           0           0
Nuclear spins                              I   N=           6
           0           2           0           1           1           1
Nuclear ZEff                               R   N=           6
 -3.60000000E+00 -4.55000000E+00 -5.60000000E+00 -1.00000000E+00 -1.00000000E+00
 -1.00000000E+00
Nuclear QMom                               R   N=           6
  0.00000000E+00  2.04400000E+00  0.00000000E+00  0.00000000E+00  0.00000000E+00
  0.00000000E+00
Nuclear GFac                               R   N=           6
  0.00000000E+00  4.03761000E-01  0.00000000E+00  2.79284600E+00  2.79284600E+00
  2.79284600E+00
MicOpt                                     I   N=           6
          -1          -1          -1          -1          -1          -1
Number of contracted shells                I               42
Number of primitive shells                 I               90
Pure/Cartesian d shells                    I                0
Pure/Cartesian f shells                    I                0
Highest angular momentum                   I                2
Largest degree of contraction              I                7
Shell types                                I   N=          42
           0           0           0           0           1           1
           1          -2          -2           0           0           0
           0           1           1           1          -2          -2
           0           0           0           0           1           1
           1          -2          -2           0           0           0
           1           1           0           0           0           1
           1           0           0           0           1           1
Number of primitives per shell             I   N=          42
           7           7           1           1           3           1
           1           1           1           7           7           1
           1           3           1           1           1           1
           7           7           1           1           3           1
           1           1           1           3           1           1
           1           1           3           1           1           1
           1           3           1           1           1           1
Shell to atom map                          I   N=          42
           1           1           1           1           1           1
           1           1           1           2           2           2
           2           2           2           2           2           2
           3           3           3           3           3           3
           3           3           3           4           4           4
           4           4           5           5           5           5
           5           6           6           6           6           6
Primitive exponents                        R   N=          90
  6.66500000E+03  1.00000000E+03  2.28000000E+02  6.47100000E+01  2.10600000E+01
  7.49500000E+00  2.79700000E+00  6.66500000E+03  2.28000000E+02  6.47100000E+01
  2.10600000E+01  7.49500000E+00  2.79700000E+00  5.21500000E-01  1.59600000E-01
  4.69000000E-02  9.43900000E+00  2.00200000E+00  5.45600000E-01  1.51700000E-01
  4.04100000E-02  5.50000000E-01  1.51000000E-01  9.04600000E+03  1.35700000E+03
  3.09300000E+02  8.77300000E+01  2.85600000E+01  1.02100000E+01  3.83800000E+00
  9.04600000E+03  3.09300000E+02  8.77300000E+01  2.85600000E+01  1.02100000E+01
  3.83800000E+00  7.46600000E-01  2.24800000E-01  6.12400000E-02  1.35500000E+01
  2.91700000E+00  7.97300000E-01  2.18500000E-01  5.61100000E-02  8.17000000E-01
  2.30000000E-01  1.17200000E+04  1.75900000E+03  4.00800000E+02  1.13700000E+02
  3.70300000E+01  1.32700000E+01  5.02500000E+00  1.17200000E+04  4.00800000E+02
  1.13700000E+02  3.70300000E+01  1.32700000E+01  5.02500000E+00  1.01300000E+00
  3.02300000E-01  7.89600000E-02  1.77000000E+01  3.85400000E+00  1.04600000E+00
  2.75300000E-01  6.85600000E-02  1.18500000E+00  3.32000000E-01  1.30100000E+01
  1.96200000E+00  4.44600000E-01  1.22000000E-01  2.97400000E-02  7.27000000E-01
  1.41000000E-01  1.30100000E+01  1.96200000E+00  4.44600000E-01  1.22000000E-01
  2.97400000E-02  7.27000000E-01  1.41000000E-01  1.30100000E+01  1.96200000E+00
  4.44600000E-01  1.22000000E-01  2.97400000E-02  7.27000000E-01  1.41000000E-01
Contraction coefficients                   R   N=          90
  6.93516317E-04  5.34150243E-03  2.71366714E-02  1.01992385E-01  2.75508636E-01
  4.51086433E-01  2.87565745E-01  7.73354740E-06  2.78072137E-04 -2.57875654E-03
 -8.95087684E-03 -1.06058855E-01 -1.31517686E-01  1.09948660E+00  1.00000000E+00
  1.00000000E+00  5.69792516E-02  3.13207212E-01  7.60376742E-01  1.00000000E+00
  1.00000000E+00  1.00000000E+00  1.00000000E+00  7.01708743E-04  5.40299880E-03
  2.74729510E-02  1.03514580E-01  2.79586579E-01  4.51317241E-01  2.80626875E-01
  7.77446797E-06  3.00742072E-04 -2.80016549E-03 -9.89708505E-03 -1.14331114E-01
 -1.18162383E-01  1.09786885E+00  1.00000000E+00  1.00000000E+00  5.89056768E-02
  3.20461107E-01  7.53042062E-01  1.00000000E+00  1.00000000E+00  1.00000000E+00
  1.00000000E+00  7.11864434E-04  5.48520199E-03  2.79099296E-02  1.05133208E-01
  2.84002490E-01  4.51673946E-01  2.73208126E-01  7.69030046E-06  3.13484579E-04
 -2.96614853E-03 -1.08753543E-02 -1.20753817E-01 -1.06275264E-01  1.09597548E+00
  1.00000000E+00  1.00000000E+00  6.26791663E-02  3.33536566E-01  7.41239642E-01
  1.00000000E+00  1.00000000E+00  1.00000000E+00  1.00000000E+00  3.34987264E-02
  2.34800801E-01  8.13682958E-01  1.00000000E+00  1.00000000E+00  1.00000000E+00
  1.00000000E+00  3.34987264E-02  2.34800801E-01  8.13682958E-01  1.00000000E+00
  1.00000000E+00  1.00000000E+00  1.00000000E+00  3.34987264E-02  2.34800801E-01
  8.13682958E-01  1.00000000E+00  1.00000000E+00  1.00000000E+00  1.00000000E+00
Coordinates of each shell                  R   N=         126
 -2.80446696E-01  7.35880143E-01 -1.51178091E-05 -2.80446696E-01  7.35880143E-01
 -1.51178091E-05 -2.80446696E-01  7.35880143E-01 -1.51178091E-05 -2.80446696E-01
  7.35880143E-01 -1.51178091E-05 -2.80446696E-01  7.35880143E-01 -1.51178091E-05
 -2.80446696E-01  7.35880143E-01 -1.51178091E-05 -2.80446696E-01  7.35880143E-01
 -1.51178091E-05 -2.80446696E-01  7.35880143E-01 -1.51178091E-05 -2.80446696E-01
  7.35880143E-01 -1.51178091E-05  2.03313745E+00 -3.04100398E-01  1.13383568E-04
  2.03313745E+00 -3.04100398E-01  1.13383568E-04  2.03313745E+00 -3.04100398E-01
  1.13383568E-04  2.03313745E+00 -3.04100398E-01  1.13383568E-04  2.03313745E+00
 -3.04100398E-01  1.13383568E-04  2.03313745E+00 -3.04100398E-01  1.13383568E-04
  2.03313745E+00 -3.04100398E-01  1.13383568E-04  2.03313745E+00 -3.04100398E-01
  1.13383568E-04  2.03313745E+00 -3.04100398E-01  1.13383568E-04 -2.26580242E+00
 -4.61796155E-01 -1.43619186E-04 -2.26580242E+00 -4.61796155E-01 -1.43619186E-04
 -2.26580242E+00 -4.61796155E-01 -1.43619186E-04 -2.26580242E+00 -4.61796155E-01
 -1.43619186E-04 -2.26580242E+00 -4.61796155E-01 -1.43619186E-04 -2.26580242E+00
 -4.61796155E-01 -1.43619186E-04 -2.26580242E+00 -4.61796155E-01 -1.43619186E-04
 -2.26580242E+00 -4.61796155E-01 -1.43619186E-04 -2.26580242E+00 -4.61796155E-01
 -1.43619186E-04  2.23366952E+00 -2.20464521E+00  1.73854804E-04  2.23366952E+00
 -2.20464521E+00  1.73854804E-04  2.23366952E+00 -2.20464521E+00  1.73854804E-04
  2.23366952E+00 -2.20464521E+00  1.73854804E-04  2.23366952E+00 -2.20464521E+00
  1.73854804E-04  3.59611482E+00  7.87938319E-01  2.91017824E-04  3.59611482E+00
  7.87938319E-01  2.91017824E-04  3.59611482E+00  7.87938319E-01  2.91017824E-04
  3.59611482E+00  7.87938319E-01  2.91017824E-04  3.59611482E+00  7.87938319E-01
  2.91017824E-04 -2.52641266E-01  2.82449617E+00 -9.44863066E-06 -2.52641266E-01
  2.82449617E+00 -9.44863066E-06 -2.52641266E-01  2.82449617E+00 -9.44863066E-06
 -2.52641266E-01  2.82449617E+00 -9.44863066E-06 -2.52641266E-01  2.82449617E+00
 -9.44863066E-06
Density Number of contracted shells        I               84
Density Number of primitive shells         I               84
Density Pure/Cartesian d shells            I                0
Density Pure/Cartesian f shells            I                0
Density Highest angular momentum           I                3
Density Largest degree of contraction      I                1
Density Shell types                        I   N=          84
           0           0           0           0           0          -1
          -2          -1          -2          -1          -2          -3
          -1          -2          -3          -1          -2          -3
           0           0           0           0           0          -1
          -2          -1          -2          -1          -2          -3
          -1          -2          -3          -1          -2          -3
           0           0           0           0           0          -1
          -2          -1          -2          -1          -2          -3
          -1          -2          -3          -1          -2          -3
           0           0          -1          -2          -1          -2
          -1          -2          -1          -2           0           0
          -1          -2          -1          -2          -1          -2
          -1          -2           0           0          -1          -2
          -1          -2          -1          -2          -1          -2
Density Number of primitives per shell     I   N=          84
           1           1           1           1           1           1
           1           1           1           1           1           1
           1           1           1           1           1           1
           1           1           1           1           1           1
           1           1           1           1           1           1
           1           1           1           1           1           1
           1           1           1           1           1           1
           1           1           1           1           1           1
           1           1           1           1           1           1
           1           1           1           1           1           1
           1           1           1           1           1           1
           1           1           1           1           1           1
           1           1           1           1           1           1
           1           1           1           1           1           1
Density Shell to atom map                  I   N=          84
           1           1           1           1           1           1
           1           1           1           1           1           1
           1           1           1           1           1           1
           2           2           2           2           2           2
           2           2           2           2           2           2
           2           2           2           2           2           2
           3           3           3           3           3           3
           3           3           3           3           3           3
           3           3           3           3           3           3
           4           4           4           4           4           4
           4           4           4           4           5           5
           5           5           5           5           5           5
           5           5           6           6           6           6
           6           6           6           6           6           6
Density Primitive exponents                R   N=          84
  1.33300000E+04  2.00000000E+03  4.56000000E+02  1.29420000E+02  4.21200000E+01
  1.68220457E+01  1.68220457E+01  4.73269226E+00  4.73269226E+00  1.06897221E+00
  1.06897221E+00  1.06897221E+00  3.10840122E-01  3.10840122E-01  3.10840122E-01
  8.70684558E-02  8.70684558E-02  8.70684558E-02  1.80920000E+04  2.71400000E+03
  6.18600000E+02  1.75460000E+02  5.71200000E+01  2.35240728E+01  2.35240728E+01
  6.69191931E+00  6.69191931E+00  1.55251192E+00  1.55251192E+00  1.55251192E+00
  4.45796600E-01  4.45796600E-01  4.45796600E-01  1.17237816E-01  1.17237816E-01
  1.17237816E-01  2.34400000E+04  3.51800000E+03  8.01600000E+02  2.27400000E+02
  7.40600000E+01  3.06515252E+01  3.06515252E+01  8.80144306E+00  8.80144306E+00
  2.20889185E+00  2.20889185E+00  2.20889185E+00  5.90645853E-01  5.90645853E-01
  5.90645853E-01  1.47152949E-01  1.47152949E-01  1.47152949E-01  2.60200000E+01
  3.92400000E+00  1.45400000E+00  1.45400000E+00  8.89200000E-01  8.89200000E-01
  2.62312790E-01  2.62312790E-01  5.94800000E-02  5.94800000E-02  2.60200000E+01
  3.92400000E+00  1.45400000E+00  1.45400000E+00  8.89200000E-01  8.89200000E-01
  2.62312790E-01  2.62312790E-01  5.94800000E-02  5.94800000E-02  2.60200000E+01
  3.92400000E+00  1.45400000E+00  1.45400000E+00  8.89200000E-01  8.89200000E-01
  2.62312790E-01  2.62312790E-01  5.94800000E-02  5.94800000E-02
Density Contraction coefficients           R   N=          84
  1.00000000E+00  1.00000000E+00  1.00000000E+00  1.00000000E+00  1.00000000E+00
  1.00000000E+00  1.00000000E+00  1.00000000E+00  1.00000000E+00  1.00000000E+00
  1.00000000E+00  1.00000000E+00  1.00000000E+00  1.00000000E+00  1.00000000E+00
  1.00000000E+00  1.00000000E+00  1.00000000E+00  1.00000000E+00  1.00000000E+00
  1.00000000E+00  1.00000000E+00  1.00000000E+00  1.00000000E+00  1.00000000E+00
  1.00000000E+00  1.00000000E+00  1.00000000E+00  1.00000000E+00  1.00000000E+00
  1.00000000E+00  1.00000000E+00  1.00000000E+00  1.00000000E+00  1.00000000E+00
  1.00000000E+00  1.00000000E+00  1.00000000E+00  1.00000000E+00  1.00000000E+00
  1.00000000E+00  1.00000000E+00  1.00000000E+00  1.00000000E+00  1.00000000E+00
  1.00000000E+00  1.00000000E+00  1.00000000E+00  1.00000000E+00  1.00000000E+00
  1.00000000E+00  1.00000000E+00  1.00000000E+00  1.00000000E+00  1.00000000E+00
  1.00000000E+00  1.00000000E+00  1.00000000E+00  1.00000000E+00  1.00000000E+00
  1.00000000E+00  1.00000000E+00  1.00000000E+00  1.00000000E+00  1.00000000E+00
  1.00000000E+00  1.00000000E+00  1.00000000E+00  1.00000000E+00  1.00000000E+00
  1.00000000E+00  1.00000000E+00  1.00000000E+00  1.00000000E+00  1.00000000E+00
  1.00000000E+00  1.00000000E+00  1.00000000E+00  1.00000000E+00  1.00000000E+00
  1.00000000E+00  1.00000000E+00  1.00000000E+00  1.00000000E+00
Density P(S=P) Contraction coefficients    R   N=          84
  0.00000000E+00  0.00000000E+00  0.00000000E+00  0.00000000E+00  0.00000000E+00
  1.00000000E+00  0.00000000E+00  1.00000000E+00  0.00000000E+00  1.00000000E+00
  0.00000000E+00  0.00000000E+00  1.00000000E+00  0.00000000E+00  0.00000000E+00
  1.00000000E+00  0.00000000E+00  0.00000000E+00  0.00000000E+00  0.00000000E+00
  0.00000000E+00  0.00000000E+00  0.00000000E+00  1.00000000E+00  0.00000000E+00
  1.00000000E+00  0.00000000E+00  1.00000000E+00  0.00000000E+00  0.00000000E+00
  1.00000000E+00  0.00000000E+00  0.00000000E+00  1.00000000E+00  0.00000000E+00
  0.00000000E+00  0.00000000E+00  0.00000000E+00  0.00000000E+00  0.00000000E+00
  0.00000000E+00  1.00000000E+00  0.00000000E+00  1.00000000E+00  0.00000000E+00
  1.00000000E+00  0.00000000E+00  0.00000000E+00  1.00000000E+00  0.00000000E+00
  0.00000000E+00  1.00000000E+00  0.00000000E+00  0.00000000E+00  0.00000000E+00
  0.00000000E+00  1.00000000E+00  0.00000000E+00  1.00000000E+00  0.00000000E+00
  1.00000000E+00  0.00000000E+00  1.00000000E+00  0.00000000E+00  0.00000000E+00
  0.00000000E+00  1.00000000E+00  0.00000000E+00  1.00000000E+00  0.00000000E+00
  1.00000000E+00  0.00000000E+00  1.00000000E+00  0.00000000E+00  0.00000000E+00
  0.00000000E+00  1.00000000E+00  0.00000000E+00  1.00000000E+00  0.00000000E+00
  1.00000000E+00  0.00000000E+00  1.00000000E+00  0.00000000E+00
Density Coordinates of each shell          R   N=         252
 -2.80446696E-01  7.35880143E-01 -1.51178091E-05 -2.80446696E-01  7.35880143E-01
 -1.51178091E-05 -2.80446696E-01  7.35880143E-01 -1.51178091E-05 -2.80446696E-01
  7.35880143E-01 -1.51178091E-05 -2.80446696E-01  7.35880143E-01 -1.51178091E-05
 -2.80446696E-01  7.35880143E-01 -1.51178091E-05 -2.80446696E-01  7.35880143E-01
 -1.51178091E-05 -2.80446696E-01  7.35880143E-01 -1.51178091E-05 -2.80446696E-01
  7.35880143E-01 -1.51178091E-05 -2.80446696E-01  7.35880143E-01 -1.51178091E-05
 -2.80446696E-01  7.35880143E-01 -1.51178091E-05 -2.80446696E-01  7.35880143E-01
 -1.51178091E-05 -2.80446696E-01  7.35880143E-01 -1.51178091E-05 -2.80446696E-01
  7.35880143E-01 -1.51178091E-05 -2.80446696E-01  7.35880143E-01 -1.51178091E-05
 -2.80446696E-01  7.35880143E-01 -1.51178091E-05 -2.80446696E-01  7.35880143E-01
 -1.51178091E-05 -2.80446696E-01  7.35880143E-01 -1.51178091E-05  2.03313745E+00
 -3.04100398E-01  1.13383568E-04  2.03313745E+00 -3.04100398E-01  1.13383568E-04
  2.03313745E+00 -3.04100398E-01  1.13383568E-04  2.03313745E+00 -3.04100398E-01
  1.13383568E-04  2.03313745E+00 -3.04100398E-01  1.13383568E-04  2.03313745E+00
 -3.04100398E-01  1.13383568E-04  2.03313745E+00 -3.04100398E-01  1.13383568E-04
  2.03313745E+00 -3.04100398E-01  1.13383568E-04  2.03313745E+00 -3.04100398E-01
  1.13383568E-04  2.03313745E+00 -3.04100398E-01  1.13383568E-04  2.03313745E+00
 -3.04100398E-01  1.13383568E-04  2.03313745E+00 -3.04100398E-01  1.13383568E-04
  2.03313745E+00 -3.04100398E-01  1.13383568E-04  2.03313745E+00 -3.04100398E-01
  1.13383568E-04  2.03313745E+00 -3.04100398E-01  1.13383568E-04  2.03313745E+00
 -3.04100398E-01  1.13383568E-04  2.03313745E+00 -3.04100398E-01  1.13383568E-04
  2.03313745E+00 -3.04100398E-01  1.13383568E-04 -2.26580242E+00 -4.61796155E-01
 -1.43619186E-04 -2.26580242E+00 -4.61796155E-01 -1.43619186E-04 -2.26580242E+00
 -4.61796155E-01 -1.43619186E-04 -2.26580242E+00 -4.61796155E-01 -1.43619186E-04
 -2.26580242E+00 -4.61796155E-01 -1.43619186E-04 -2.26580242E+00 -4.61796155E-01
 -1.43619186E-04 -2.26580242E+00 -4.61796155E-01 -1.43619186E-04 -2.26580242E+00
 -4.61796155E-01 -1.43619186E-04 -2.26580242E+00 -4.61796155E-01 -1.43619186E-04
 -2.26580242E+00 -4.61796155E-01 -1.43619186E-04 -2.26580242E+00 -4.61796155E-01
 -1.43619186E-04 -2.26580242E+00 -4.61796155E-01 -1.43619186E-04 -2.26580242E+00
 -4.61796155E-01 -1.43619186E-04 -2.26580242E+00 -4.61796155E-01 -1.43619186E-04
 -2.26580242E+00 -4.61796155E-01 -1.43619186E-04 -2.26580242E+00 -4.61796155E-01
 -1.43619186E-04 -2.26580242E+00 -4.61796155E-01 -1.43619186E-04 -2.26580242E+00
 -4.61796155E-01 -1.43619186E-04  2.23366952E+00 -2.20464521E+00  1.73854804E-04
  2.23366952E+00 -2.20464521E+00  1.73854804E-04  2.23366952E+00 -2.20464521E+00
  1.73854804E-04  2.23366952E+00 -2.20464521E+00  1.73854804E-04  2.23366952E+00
 -2.20464521E+00  1.73854804E-04  2.23366952E+00 -2.20464521E+00  1.73854804E-04
  2.23366952E+00 -2.20464521E+00  1.73854804E-04  2.23366952E+00 -2.20464521E+00
  1.73854804E-04  2.23366952E+00 -2.20464521E+00  1.73854804E-04  2.23366952E+00
 -2.20464521E+00  1.73854804E-04  3.59611482E+00  7.87938319E-01  2.91017824E-04
  3.59611482E+00  7.87938319E-01  2.91017824E-04  3.59611482E+00  7.87938319E-01
  2.91017824E-04  3.59611482E+00  7.87938319E-01  2.91017824E-04  3.59611482E+00
  7.87938319E-01  2.91017824E-04  3.59611482E+00  7.87938319E-01  2.91017824E-04
  3.59611482E+00  7.87938319E-01  2.91017824E-04  3.59611482E+00  7.87938319E-01
  2.91017824E-04  3.59611482E+00  7.87938319E-01  2.91017824E-04  3.59611482E+00
  7.87938319E-01  2.91017824E-04 -2.52641266E-01  2.82449617E+00 -9.44863066E-06
 -2.52641266E-01  2.82449617E+00 -9.44863066E-06 -2.52641266E-01  2.82449617E+00
 -9.44863066E-06 -2.52641266E-01  2.82449617E+00 -9.44863066E-06 -2.52641266E-01
  2.82449617E+00 -9.44863066E-06 -2.52641266E-01  2.82449617E+00 -9.44863066E-06
 -2.52641266E-01  2.82449617E+00 -9.44863066E-06 -2.52641266E-01  2.82449617E+00
 -9.44863066E-06 -2.52641266E-01  2.82449617E+00 -9.44863066E-06 -2.52641266E-01
  2.82449617E+00 -9.44863066E-06
Constraint Structure                       R   N=          18
 -2.80446696E-01  7.35880143E-01 -1.51178091E-05  2.03313745E+00 -3.04100398E-01
  1.13383568E-04 -2.26580242E+00 -4.61796155E-01 -1.43619186E-04  2.23366952E+00
 -2.20464521E+00  1.73854804E-04  3.59611482E+00  7.87938319E-01  2.91017824E-04
 -2.52641266E-01  2.82449617E+00 -9.44863066E-06
Num ILSW                                   I              100
ILSW                                       I   N=         100
           0           0           0           0           2           0
           0           0           0           0       20419          -1
           5           0           0           0           0           0
           0           0           1           0           1           0
           1           1           0           0           0           0
           0           0      100000           0          -1           0
           0           0           0           0           0           0
           0           0           0           1           0           0
           0           0           1           0           0           0
           0           0           4          40           0           0
           0           0          40           0           0           0
           0           0           0           0           0           0
           0           0           0           0           0           0
           0           0           0           0           0           0
           0           0           0           0           0           0
           0           0           0           0           0           0
           0           0           0           0
Num RLSW                                   I               40
RLSW                                       R   N=          40
  1.00000000E+00  1.00000000E+00  1.00000000E+00  8.10000000E-01  1.00000000E+00
  0.00000000E+00  3.30000000E-01  1.90000000E-01  0.00000000E+00  4.60000000E-01
  0.00000000E+00  3.30000000E-01  1.90000000E-01  0.00000000E+00  4.60000000E-01
  0.00000000E+00  0.00000000E+00  1.00000000E+00  0.00000000E+00  0.00000000E+00
  0.00000000E+00  0.00000000E+00  1.00000000E+00  0.00000000E+00  0.00000000E+00
  0.00000000E+00  0.00000000E+00  1.00000000E+00  0.00000000E+00  0.00000000E+00
  0.00000000E+00  0.00000000E+00  0.00000000E+00  0.00000000E+00  0.00000000E+00
  0.00000000E+00  0.00000000E+00  0.00000000E+00  1.00000000E+00  1.00000000E+00
MxBond                                     I                3
NBond                                      I   N=           6
           3           3           1           1           1           1
IBond                                      I   N=          18
           2           3           6           1           4           5
           1           0           0           2           0           0
           2           0           0           1           0           0
RBond                                      R   N=          18
  1.41000000E+00  2.00000000E+00  1.00000000E+00  1.41000000E+00  1.00000000E+00
  1.00000000E+00  2.00000000E+00  0.00000000E+00  0.00000000E+00  1.00000000E+00
  0.00000000E+00  0.00000000E+00  1.00000000E+00  0.00000000E+00  0.00000000E+00
  1.00000000E+00  0.00000000E+00  0.00000000E+00
Virial Ratio                               R      2.006403586442868E+00
SCF Energy                                 R     -1.698642017044327E+02
CIS Energy                                 R     -1.696520965552585E+02
Total Energy                               R     -1.696520965552585E+02
Post-SCF wavefunction norm                 R      1.000000000000000E+00
RMS Force                                  R      4.445892571229995E-02
RMS Density                                R      4.600397016542602E-09
External E-field                           R   N=          35
  0.00000000E+00  0.00000000E+00  0.00000000E+00  0.00000000E+00  0.00000000E+00
  0.00000000E+00  0.00000000E+00  0.00000000E+00  0.00000000E+00  0.00000000E+00
  0.00000000E+00  0.00000000E+00  0.00000000E+00  0.00000000E+00  0.00000000E+00
  0.00000000E+00  0.00000000E+00  0.00000000E+00  0.00000000E+00  0.00000000E+00
  0.00000000E+00  0.00000000E+00  0.00000000E+00  0.00000000E+00  0.00000000E+00
  0.00000000E+00  0.00000000E+00  0.00000000E+00  0.00000000E+00  0.00000000E+00
  0.00000000E+00  0.00000000E+00  0.00000000E+00  0.00000000E+00  0.00000000E+00
IOpCl                                      I                0
IROHF                                      I                0
Alpha Orbital Energies                     R   N=          96
 -1.92059218E+01 -1.44392078E+01 -1.03765386E+01 -1.13251028E+00 -1.00139848E+00
 -7.09004725E-01 -6.32825209E-01 -5.62205291E-01 -4.99482580E-01 -4.90272906E-01
 -3.51079253E-01 -3.43137137E-01  1.67088088E-02  3.32755439E-02  4.39810479E-02
  4.94370062E-02  7.80509769E-02  8.20022496E-02  9.54619043E-02  1.27442095E-01
  1.42888601E-01  1.49506440E-01  1.59485880E-01  1.81277564E-01  2.09685303E-01
  2.11129197E-01  2.14753619E-01  2.61566296E-01  2.70569094E-01  2.78790042E-01
  2.91658640E-01  3.58074335E-01  3.59577158E-01  3.64872030E-01  3.98373984E-01
  4.42356959E-01  4.55210195E-01  4.81414259E-01  4.94354279E-01  5.14732587E-01
  5.41137247E-01  5.45739632E-01  5.50222025E-01  5.75839513E-01  5.83838176E-01
  6.05790698E-01  6.68590477E-01  6.89920421E-01  7.21081042E-01  7.52723181E-01
  8.04399374E-01  8.34604544E-01  8.61494360E-01  8.72321381E-01  9.14546939E-01
  1.05603729E+00  1.07185985E+00  1.08786342E+00  1.12407836E+00  1.18207448E+00
  1.22634945E+00  1.26539282E+00  1.30110919E+00  1.34930434E+00  1.42877179E+00
  1.49235760E+00  1.49240327E+00  1.66239401E+00  1.69917767E+00  1.71599817E+00
  1.76711587E+00  1.80636309E+00  1.83629200E+00  1.87524230E+00  2.00350767E+00
  2.03407887E+00  2.05066076E+00  2.10198837E+00  2.14979729E+00  2.22047217E+00
  2.22796486E+00  2.28727395E+00  2.46312544E+00  2.51523860E+00  2.55133878E+00
  2.66072894E+00  2.69133721E+00  2.86876029E+00  3.02817145E+00  3.17881581E+00
  3.31104280E+00  3.40263154E+00  3.45509236E+00  3.46311542E+00  3.71926990E+00
  3.77736440E+00
Alpha MO coefficients                      R   N=        9216
  1.79933526E-04  9.77815195E-04  1.87847259E-02  5.04905696E-03 -6.75355101E-04
 -4.77973336E-04 -5.55446225E-08 -1.16072642E-02 -1.11253813E-02 -7.53831032E-07
 -9.72530681E-04  1.74103213E-04 -7.05576413E-08 -3.86569262E-04 -3.41423129E-09
 -3.38522361E-08 -4.94904521E-04 -6.13705009E-04 -3.20904857E-03  6.86813490E-07
  5.91758949E-07  4.22127261E-03  9.43672680E-03  4.23095545E-05  1.74997625E-04
  1.65015725E-03  5.19775573E-03  8.40552145E-05  1.18039704E-05  4.61709754E-10
  2.36716676E-03 -1.61768470E-03  1.93355138E-07 -2.06703696E-03  6.76639222E-04
 -8.62104577E-08 -1.63404474E-05 -2.10977853E-08 -1.10798066E-08 -3.95176520E-04
 -1.35339800E-04  1.28639187E-03 -1.26802488E-07  6.70159800E-08 -1.71178317E-04
  1.01250858E-03  9.96865911E-01  2.62602245E-02 -3.10138842E-02 -1.56757220E-02
  1.67619649E-03  9.39038090E-04  1.06002639E-07 -7.72050047E-03 -4.09464787E-03
 -4.88117823E-07 -3.44703011E-03 -1.76475104E-03 -2.07165737E-07  3.75895874E-05
 -1.08330494E-09  5.81169075E-09  4.01433342E-05  1.38357274E-04  2.45627681E-04
 -6.80767913E-08 -5.47889364E-08 -5.48959783E-04 -9.83027792E-04  6.45851518E-05