 Entering Gaussian System, Link 0=g09
 Input=td4-orient.com
 Output=td4-orient.log
 Initial command:
 /home/diegoa/progs/g09/l1.exe /home/diegoa/g09scratch/Gau-24821.inp -scrdir=/home/diegoa/g09scratch/
 Default is to use a total of   4 processors:
                                4 via shared-memory
                                1 via Linda
 Entering Link 1 = /home/diegoa/progs/g09/l1.exe PID=     24826.
  
 Copyright (c) 1988,1990,1992,1993,1995,1998,2003,2009, Gaussian, Inc.
                  All Rights Reserved.
  
 This is part of the Gaussian(R) 09 program.  It is based on
 the Gaussian(R) 03 system (copyright 2003, Gaussian, Inc.),
 the Gaussian(R) 98 system (copyright 1998, Gaussian, Inc.),
 the Gaussian(R) 94 system (copyright 1995, Gaussian, Inc.),
 the Gaussian 92(TM) system (copyright 1992, Gaussian, Inc.),
 the Gaussian 90(TM) system (copyright 1990, Gaussian, Inc.),
 the Gaussian 88(TM) system (copyright 1988, Gaussian, Inc.),
 the Gaussian 86(TM) system (copyright 1986, Carnegie Mellon
 University), and the Gaussian 82(TM) system (copyright 1983,
 Carnegie Mellon University). Gaussian is a federally registered
 trademark of Gaussian, Inc.
  
 This software contains proprietary and confidential information,
 including trade secrets, belonging to Gaussian, Inc.
  
 This software is provided under written license and may be
 used, copied, transmitted, or stored only in accord with that
 written license.
  
 The following legend is applicable only to US Government
 contracts under FAR:
  
                    RESTRICTED RIGHTS LEGEND
  
 Use, reproduction and disclosure by the US Government is
 subject to restrictions as set forth in subparagraphs (a)
 and (c) of the Commercial Computer Software - Restricted
 Rights clause in FAR 52.227-19.
  
 Gaussian, Inc.
 340 Quinnipiac St., Bldg. 40, Wallingford CT 06492
  
  
 ---------------------------------------------------------------
 Warning -- This program may not be used in any manner that
 competes with the business of Gaussian, Inc. or will provide
 assistance to any competitor of Gaussian, Inc.  The licensee
 of this program is prohibited from giving any competitor of
 Gaussian, Inc. access to this program.  By using this program,
 the user acknowledges that Gaussian, Inc. is engaged in the
 business of creating and licensing software in the field of
 computational chemistry and represents and warrants to the
 licensee that it is not a competitor of Gaussian, Inc. and that
 it will not use this program in any manner prohibited above.
 ---------------------------------------------------------------
  

 Cite this work as:
 Gaussian 09, Revision A.01,
 M. J. Frisch, G. W. Trucks, H. B. Schlegel, G. E. Scuseria, 
 M. A. Robb, J. R. Cheeseman, G. Scalmani, V. Barone, B. Mennucci, 
 G. A. Petersson, H. Nakatsuji, M. Caricato, X. Li, H. P. Hratchian, 
 A. F. Izmaylov, J. Bloino, G. Zheng, J. L. Sonnenberg, M. Hada, 
 M. Ehara, K. Toyota, R. Fukuda, J. Hasegawa, M. Ishida, T. Nakajima, 
 Y. Honda, O. Kitao, H. Nakai, T. Vreven, J. A. Montgomery, Jr., 
 J. E. Peralta, F. Ogliaro, M. Bearpark, J. J. Heyd, E. Brothers, 
 K. N. Kudin, V. N. Staroverov, R. Kobayashi, J. Normand, 
 K. Raghavachari, A. Rendell, J. C. Burant, S. S. Iyengar, J. Tomasi, 
 M. Cossi, N. Rega, J. M. Millam, M. Klene, J. E. Knox, J. B. Cross, 
 V. Bakken, C. Adamo, J. Jaramillo, R. Gomperts, R. E. Stratmann, 
 O. Yazyev, A. J. Austin, R. Cammi, C. Pomelli, J. W. Ochterski, 
 R. L. Martin, K. Morokuma, V. G. Zakrzewski, G. A. Voth, 
 P. Salvador, J. J. Dannenberg, S. Dapprich, A. D. Daniels, 
 O. Farkas, J. B. Foresman, J. V. Ortiz, J. Cioslowski, 
 and D. J. Fox, Gaussian, Inc., Wallingford CT, 2009.
 
 ******************************************
 Gaussian 09:  EM64L-G09RevA.01  8-May-2009
                28-Oct-2019 
 ******************************************
 %chk=td4-orient.chk
 %NProcShared=4
 Will use up to    4 processors via shared memory.
 Default route:  MP2=Direct MaxDisk=1000GB DenFit
 ----------------------------------------------------------------------
 # cam-b3lyp/aug-cc-pvdz td(root=1,nstates=20) SCRF=PCM int(grid=ultraf
 ine)
 ----------------------------------------------------------------------
 1/38=1/1;
 2/12=2,17=6,18=5,40=1/2;
 3/5=16,7=10,11=2,16=1,25=1,30=1,70=2201,72=1,74=-40,75=-5,82=47/1,2,8,3;
 4//1;
 5/5=2,38=5/2;
 8/6=1,10=1,107=1,108=20/1;
 9/8=1,41=20,42=1/14;
 6/7=2,8=2,9=2,10=2/1;
 99/5=1,9=1/99;
 -----
 Title
 -----
 Symbolic Z-matrix:
 Charge =  0 Multiplicity = 1
 6                    -0.23954   0.19015   0.13159 
 7                     1.0588   -0.32976  -0.10635 
 8                    -1.29206   0.12822  -0.58964 
 1                     1.49964  -0.77804   0.6928 
 1                     1.72348   0.26439  -0.60991 
 1                    -0.07055   1.25413   0.48172 
 
                          Input orientation:                          
 ---------------------------------------------------------------------
 Center     Atomic      Atomic             Coordinates (Angstroms)
 Number     Number       Type             X           Y           Z
 ---------------------------------------------------------------------
      1          6           0       -0.239542    0.190148    0.131589
      2          7           0        1.058802   -0.329763   -0.106347
      3          8           0       -1.292056    0.128222   -0.589641
      4          1           0        1.499638   -0.778042    0.692800
      5          1           0        1.723475    0.264394   -0.609908
      6          1           0       -0.070546    1.254127    0.481724
 ---------------------------------------------------------------------
                    Distance matrix (angstroms):
                    1          2          3          4          5
     1  C    0.000000
     2  N    1.418668   0.000000
     3  O    1.277417   2.443329   0.000000
     4  H    2.068114   1.016822   3.203049   0.000000
     5  H    2.099706   1.023907   3.018672   1.683397   0.000000
     6  H    1.132787   2.032231   1.976758   2.576770   2.321582
                    6
     6  H    0.000000
 Stoichiometry    CH3NO
 Framework group  C1[X(CH3NO)]
 Deg. of freedom    12
 Full point group                 C1      NOp   1
 Largest Abelian subgroup         C1      NOp   1
 Largest concise Abelian subgroup C1      NOp   1
                         Standard orientation:                         
 ---------------------------------------------------------------------
 Center     Atomic      Atomic             Coordinates (Angstroms)
 Number     Number       Type             X           Y           Z
 ---------------------------------------------------------------------
      1          6           0        0.156345    0.330266   -0.145577
      2          7           0       -1.147871   -0.206585    0.007489
      3          8           0        1.295314   -0.220903    0.029794
      4          1           0       -1.806018    0.036366   -0.728544
      5          1           0       -1.584467   -0.137837    0.931093
      6          1           0        0.124999    1.333187    0.380135
 ---------------------------------------------------------------------
 Rotational constants (GHZ):     80.4712981      9.5443967      9.0736355
 Standard basis: Aug-CC-pVDZ (5D, 7F)
 There are    96 symmetry adapted basis functions of A   symmetry.
 Integral buffers will be    131072 words long.
 Raffenetti 2 integral format.
 Two-electron integral symmetry is turned on.
    96 basis functions,   162 primitive gaussians,   102 cartesian basis functions
    12 alpha electrons       12 beta electrons
       nuclear repulsion energy        68.2262686310 Hartrees.
 NAtoms=    6 NActive=    6 NUniq=    6 SFac= 7.50D-01 NAtFMM=   80 NAOKFM=F Big=F
 Standard density basis: Auto (5D, 7F)
   327 Density fitting functions
 There are   327 symmetry adapted density basis functions of A   symmetry.
 ------------------------------------------------------------------------------
 Polarizable Continuum Model (PCM)
 =================================
 Model                : PCM.
 Atomic radii         : UFF (Universal Force Field).
 Polarization charges : Total charges.
 Charge compensation  : None.
 Solution method      : Matrix inversion.
 Cavity type          : Scaled VdW (van der Waals Surface) (Alpha=1.100).
 Cavity algorithm     : GePol (No added spheres)
                        Default sphere list used, NSphG=    6.
                        Lebedev-Laikov grids with approx.  5.0 points / Ang**2.
                        Smoothing algorithm: Karplus/York (Gamma=1.0000).
                        Polarization charges: spherical gaussians, with
                                              point-specific exponents (IZeta= 3).
                        Self-potential: point-specific (ISelfS= 7).
                        Self-field    : sphere-specific E.n sum rule (ISelfD= 2).
 Solvent              : Water, Eps=  78.355300 Eps(inf)=   1.777849
 ------------------------------------------------------------------------------
 Spheres list:
 ISph  on   Nord    Re0     Alpha      Xe            Ye            Ze
    1   C      1    1.926   1.100      0.156345      0.330266     -0.145577
    2   N      2    1.830   1.100     -1.147871     -0.206585      0.007489
    3   O      3    1.750   1.100      1.295314     -0.220903      0.029794
    4   H      4    1.443   1.100     -1.806018      0.036366     -0.728544
    5   H      5    1.443   1.100     -1.584467     -0.137837      0.931093
    6   H      6    1.443   1.100      0.124999      1.333187      0.380135
 ------------------------------------------------------------------------------
 One-electron integrals computed using PRISM.
 NBasis=    96 RedAO= T  NBF=    96
 NBsUse=    96 1.00D-06 NBFU=    96
 Harris functional with IExCor=20419 diagonalized for initial guess.
 ExpMin= 2.97D-02 ExpMax= 1.17D+04 ExpMxC= 4.01D+02 IAcc=3 IRadAn=         5 AccDes= 0.00D+00
 HarFok:  IExCor=20419 AccDes= 0.00D+00 IRadAn=         5 IDoV= 1
 ScaDFX=  1.000000  1.000000  1.000000  1.000000
 FoFCou: FMM=F IPFlag=           0 FMFlag=      100000 FMFlg1=           0
         NFxFlg=           0 DoJE=T BraDBF=F KetDBF=T FulRan=T
         Omega=  0.000000  0.000000  1.000000  0.000000  0.000000 ICntrl=     500 IOpCl=  0
         NMat0=    1 NMatS0=    1 NMatT0=    0 NMatD0=    1 NMtDS0=    0 NMtDT0=    0
         I1Cent=           4 NGrid=           0.
 Petite list used in FoFCou.
 Initial guess orbital symmetries:
       Occupied  (A) (A) (A) (A) (A) (A) (A) (A) (A) (A) (A) (A)
       Virtual   (A) (A) (A) (A) (A) (A) (A) (A) (A) (A) (A) (A)
                 (A) (A) (A) (A) (A) (A) (A) (A) (A) (A) (A) (A)
                 (A) (A) (A) (A) (A) (A) (A) (A) (A) (A) (A) (A)
                 (A) (A) (A) (A) (A) (A) (A) (A) (A) (A) (A) (A)
                 (A) (A) (A) (A) (A) (A) (A) (A) (A) (A) (A) (A)
                 (A) (A) (A) (A) (A) (A) (A) (A) (A) (A) (A) (A)
                 (A) (A) (A) (A) (A) (A) (A) (A) (A) (A) (A) (A)
 The electronic state of the initial guess is 1-A.
 Requested convergence on RMS density matrix=1.00D-08 within 128 cycles.
 Requested convergence on MAX density matrix=1.00D-06.
 Requested convergence on             energy=1.00D-06.
 No special actions if energy rises.
 FoFJK:  IHMeth= 1 ICntrl=     0 DoSepK=T KAlg= 1 I1Cent= 0 FoldK=F
 FoFJK:  IHMeth= 1 ICntrl=     0 DoSepK=T KAlg= 1 I1Cent= 0 FoldK=F
 FoFJK:  IHMeth= 1 ICntrl=     0 DoSepK=T KAlg= 1 I1Cent= 0 FoldK=F
 FoFJK:  IHMeth= 1 ICntrl=     0 DoSepK=T KAlg= 1 I1Cent= 0 FoldK=F
 FoFJK:  IHMeth= 1 ICntrl=     0 DoSepK=T KAlg= 1 I1Cent= 0 FoldK=F
 FoFJK:  IHMeth= 1 ICntrl=     0 DoSepK=T KAlg= 1 I1Cent= 0 FoldK=F
 FoFJK:  IHMeth= 1 ICntrl=     0 DoSepK=T KAlg= 1 I1Cent= 0 FoldK=F
 FoFJK:  IHMeth= 1 ICntrl=     0 DoSepK=T KAlg= 1 I1Cent= 0 FoldK=F
 FoFJK:  IHMeth= 1 ICntrl=     0 DoSepK=T KAlg= 1 I1Cent= 0 FoldK=F
 FoFJK:  IHMeth= 1 ICntrl=     0 DoSepK=T KAlg= 1 I1Cent= 0 FoldK=F
 FoFJK:  IHMeth= 1 ICntrl=     0 DoSepK=T KAlg= 1 I1Cent= 0 FoldK=F
 FoFJK:  IHMeth= 1 ICntrl=     0 DoSepK=T KAlg= 1 I1Cent= 0 FoldK=F
 FoFJK:  IHMeth= 1 ICntrl=     0 DoSepK=T KAlg= 1 I1Cent= 0 FoldK=F
 Error on total polarization charges =  0.01170
 SCF Done:  E(RCAM-B3LYP) =  -169.787977562     A.U. after   13 cycles
             Convg  =    0.6901D-08             -V/T =  2.0080
 ExpMin= 2.97D-02 ExpMax= 1.17D+04 ExpMxC= 4.01D+02 IAcc=3 IRadAn=         5 AccDes= 0.00D+00
 HarFok:  IExCor=  205 AccDes= 0.00D+00 IRadAn=         5 IDoV=-2
 ScaDFX=  1.000000  1.000000  1.000000  1.000000
 Range of M.O.s used for correlation:     4    96
 NBasis=    96 NAE=    12 NBE=    12 NFC=     3 NFV=     0
 NROrb=     93 NOA=     9 NOB=     9 NVA=    84 NVB=    84

 **** Warning!!: The largest alpha MO coefficient is  0.13514844D+02

 NEqPCM:  Using non-equilibrium solvation (IEInf=1, Eps=  78.3553, EpsInf=   1.7778)
 Orbital symmetries:
       Occupied  (A) (A) (A) (A) (A) (A) (A) (A) (A) (A) (A) (A)
       Virtual   (A) (A) (A) (A) (A) (A) (A) (A) (A) (A) (A) (A)
                 (A) (A) (A) (A) (A) (A) (A) (A) (A) (A) (A) (A)
                 (A) (A) (A) (A) (A) (A) (A) (A) (A) (A) (A) (A)
                 (A) (A) (A) (A) (A) (A) (A) (A) (A) (A) (A) (A)
                 (A) (A) (A) (A) (A) (A) (A) (A) (A) (A) (A) (A)
                 (A) (A) (A) (A) (A) (A) (A) (A) (A) (A) (A) (A)
                 (A) (A) (A) (A) (A) (A) (A) (A) (A) (A) (A) (A)
    80 initial guesses have been made.
 Convergence on wavefunction:    0.001000000000000
 Iteration     1 Dimension    80 NMult    80
 CISAX will form    80 AO SS matrices at one time.
 FoFJK:  IHMeth= 1 ICntrl=     0 DoSepK=T KAlg= 1 I1Cent= 0 FoldK=F
 FoFJK:  IHMeth= 1 ICntrl=     0 DoSepK=T KAlg= 1 I1Cent= 0 FoldK=F
 New state      9 was old state     11
 New state     11 was old state     13
 New state     12 was old state      9
 New state     13 was old state     12
 New state     14 was old state     15
 New state     15 was old state     14
 New state     17 was old state     18
 New state     18 was old state     17
 No map to state     19
 New state     20 was old state     19
 Iteration     2 Dimension   120 NMult   120
 FoFJK:  IHMeth= 1 ICntrl=     0 DoSepK=T KAlg= 1 I1Cent= 0 FoldK=F
 FoFJK:  IHMeth= 1 ICntrl=     0 DoSepK=T KAlg= 1 I1Cent= 0 FoldK=F
 New state     12 was old state     14
 New state     13 was old state     12
 New state     14 was old state     13
 Iteration     3 Dimension   160 NMult   160
 FoFJK:  IHMeth= 1 ICntrl=     0 DoSepK=T KAlg= 1 I1Cent= 0 FoldK=F
 FoFJK:  IHMeth= 1 ICntrl=     0 DoSepK=T KAlg= 1 I1Cent= 0 FoldK=F
 Iteration     4 Dimension   192 NMult   192
 FoFJK:  IHMeth= 1 ICntrl=     0 DoSepK=T KAlg= 1 I1Cent= 0 FoldK=F
 FoFJK:  IHMeth= 1 ICntrl=     0 DoSepK=T KAlg= 1 I1Cent= 0 FoldK=F
 ***********************************************************************
 Excited states from <AA,BB:AA,BB> singles matrix:
 ***********************************************************************
 
 Ground to excited state transition electric dipole moments (Au):
       state          X           Y           Z        Dip. S.      Osc.
         1         0.0365      0.0774      0.1001      0.0173      0.0013
         2         0.0716      0.0150      0.0055      0.0054      0.0005
         3        -0.0321      0.2760      0.0156      0.0775      0.0119
         4         0.1422      0.5675      0.1463      0.3637      0.0637
         5        -0.0236     -0.1620      0.2012      0.0673      0.0121
         6         0.3285     -0.5137      0.0678      0.3764      0.0699
         7        -0.4231     -0.4009     -0.1253      0.3555      0.0666
         8         0.8353     -0.3033     -0.0638      0.7937      0.1563
         9        -0.0800      0.0304     -0.0731      0.0127      0.0026
        10        -0.1246      0.0557      0.1580      0.0436      0.0092
        11         0.6407     -0.2925      0.1476      0.5178      0.1109
        12         0.4150     -0.1264      0.0536      0.1911      0.0413
        13         0.1082      0.2621      0.0940      0.0892      0.0194
        14         0.0811      0.1668      0.0272      0.0351      0.0078
        15         0.2411      0.3402      0.0350      0.1751      0.0397
        16        -0.1160      0.0062     -0.1605      0.0393      0.0092
        17        -0.2955     -0.1386     -0.0446      0.1085      0.0260
        18         0.0616     -0.0409     -0.2704      0.0786      0.0189
        19        -0.2340     -0.0513      0.0810      0.0639      0.0155
        20         0.0033     -0.2587     -0.0689      0.0717      0.0176
 Ground to excited state transition velocity dipole moments (Au):
       state          X           Y           Z        Dip. S.      Osc.
         1        -0.0041     -0.0107     -0.0131      0.0003      0.0018
         2        -0.0110     -0.0009     -0.0021      0.0001      0.0006
         3         0.0077     -0.0660     -0.0036      0.0044      0.0128
         4        -0.0357     -0.1450     -0.0389      0.0238      0.0605
         5         0.0058      0.0408     -0.0532      0.0045      0.0112
         6        -0.0901      0.1412     -0.0159      0.0283      0.0678
         7         0.1152      0.1125      0.0345      0.0271      0.0643
         8        -0.2443      0.0885      0.0212      0.0680      0.1534
         9         0.0234     -0.0096      0.0237      0.0012      0.0026
        10         0.0376     -0.0185     -0.0517      0.0044      0.0093
        11        -0.2032      0.0921     -0.0495      0.0522      0.1083
        12        -0.1356      0.0412     -0.0184      0.0204      0.0420
        13        -0.0375     -0.0834     -0.0303      0.0093      0.0190
        14        -0.0293     -0.0530     -0.0112      0.0038      0.0076
        15        -0.0817     -0.1063     -0.0127      0.0181      0.0355
        16         0.0418     -0.0010      0.0585      0.0052      0.0098
        17         0.1079      0.0572      0.0127      0.0151      0.0280
        18        -0.0187      0.0197      0.0955      0.0099      0.0182
        19         0.0832      0.0192     -0.0315      0.0083      0.0152
        20        -0.0089      0.0932      0.0216      0.0092      0.0168
 Ground to excited state transition magnetic dipole moments (Au):
       state          X           Y           Z
         1        -1.0399      0.2843     -0.1035
         2        -0.3560      0.2764     -0.0008
         3         0.1745     -0.0825      0.3421
         4        -0.1351      0.0359      0.2734
         5        -0.1103      0.0293     -0.1175
         6        -0.2861     -0.3891      0.4458
         7         0.0661      0.1972      0.2940
         8        -0.2286     -0.2976     -0.2156
         9        -0.1440     -0.6580      0.3157
        10        -0.1955     -0.3994     -0.1126
        11         0.3118      0.6710      0.4668
        12         0.3086      0.7457      0.0995
        13         0.1632     -0.0245      0.1537
        14         0.0348      0.1739      0.1543
        15        -0.0738      0.0203      0.1425
        16         0.3533     -0.6069     -0.0815
        17        -0.2162      0.2644     -0.0607
        18        -0.0456     -0.2497     -0.0789
        19        -0.0808      0.4432     -0.1400
        20         0.0710      0.1314     -0.2785
 <0|del|b> * <b|rxdel|0> + <0|del|b> * <b|delr+rdel|0>
 Rotatory Strengths (R) in cgs (10**-40 erg-esu-cm/Gauss)
       state          XX          YY          ZZ    R(velocity)
         1        -6.1681     19.1838      3.3299      5.4486
 Total R(velocity) tensor for State=          1
                 1             2             3 
      1  -0.616807D+01  0.404974D+01 -0.136267D+01
      2  -0.373144D+02  0.191838D+02 -0.388674D+01
      3  -0.389148D+02  0.109988D+02  0.332992D+01
 R(velocity) tensor in inp. orien. for State=          1
                 1             2             3 
      1   0.474102D+01 -0.280915D-01 -0.140041D+01
      2   0.519592D+02  0.500250D+01  0.260163D+02
      3  -0.282500D+01  0.757206D+00  0.660218D+01
         2        -0.6026      9.6982      8.1777      5.7578
 Total R(velocity) tensor for State=          2
                 1             2             3 
      1  -0.602614D+00  0.778233D+01 -0.328976D+00
      2  -0.813169D+00  0.969819D+01 -0.905425D-01
      3  -0.172570D+01  0.155506D+01  0.817775D+01
 R(velocity) tensor in inp. orien. for State=          2
                 1             2             3 
      1   0.529354D+00 -0.334641D+01 -0.670829D+01
      2   0.322460D+01  0.100122D+02  0.323458D+01
      3  -0.217901D+01 -0.618841D+00  0.673180D+01
         3         9.8631      2.3366      4.7680      5.6559
 Total R(velocity) tensor for State=          3
                 1             2             3 
      1   0.986313D+01  0.637352D+00  0.935553D+01
      2   0.222633D+02  0.233664D+01  0.479468D+01
      3   0.160240D+02  0.160934D+01  0.476800D+01
 R(velocity) tensor in inp. orien. for State=          3
                 1             2             3 
      1   0.305112D+01 -0.638133D+01  0.618606D+01
      2  -0.253100D+02  0.130128D+02 -0.907721D+01
      3  -0.314288D+01 -0.303757D+00  0.903816D+00
         4       -30.9415      8.0618     -6.8124     -9.8974
 Total R(velocity) tensor for State=          4
                 1             2             3 
      1  -0.309415D+02  0.157406D+02 -0.302437D+02
      2  -0.245336D+02  0.806184D+01 -0.752061D+01
      3  -0.157987D+02  0.572026D+01 -0.681242D+01
 R(velocity) tensor in inp. orien. for State=          4
                 1             2             3 
      1  -0.175531D+02  0.135969D+02 -0.332084D+02
      2   0.285950D+02 -0.793377D+01  0.258497D+02
      3   0.191718D+01  0.245659D+01 -0.420525D+01
         5        17.0575      2.3928     -1.5798      5.9569
 Total R(velocity) tensor for State=          5
                 1             2             3 
      1   0.170575D+02 -0.828634D+01 -0.448381D+01
      2  -0.687694D+01  0.239280D+01  0.108106D+01
      3  -0.204105D+02  0.855252D+00 -0.157975D+01
 R(velocity) tensor in inp. orien. for State=          5
                 1             2             3 
      1   0.220956D+02  0.444700D+01  0.718808D+01
      2   0.147174D+02 -0.312516D+01  0.421938D+01
      3  -0.505389D+01  0.481120D+01 -0.109984D+01
         6       -95.6901     40.5722    -36.8993    -30.6724
 Total R(velocity) tensor for State=          6
                 1             2             3 
      1  -0.956901D+02 -0.576388D+02  0.305204D+02
      2   0.679991D+02  0.405722D+02 -0.251335D+02
      3   0.177791D+01 -0.300930D+01 -0.368993D+02
 R(velocity) tensor in inp. orien. for State=          6
                 1             2             3 
      1  -0.998202D+02  0.296314D+02  0.480159D+02
      2  -0.405162D+02 -0.787202D+01  0.309209D+02
      3  -0.617149D+02  0.427092D+02  0.156751D+02
         7        41.1621     24.6570     34.6564     33.4918
 Total R(velocity) tensor for State=          7
                 1             2             3 
      1   0.411621D+02 -0.289763D+02 -0.430846D+02
      2  -0.216662D+02  0.246570D+02 -0.801214D+01
      3   0.266187D+02 -0.378971D+02  0.346564D+02
 R(velocity) tensor in inp. orien. for State=          7
                 1             2             3 
      1   0.449032D+02  0.410875D+02 -0.160309D+02
      2  -0.732245D+01 -0.106820D+01 -0.181660D+02
      3   0.341325D+02  0.125783D+02  0.566406D+02
         8       -37.0992     80.6721     16.1743     19.9157
 Total R(velocity) tensor for State=          8
                 1             2             3 
      1  -0.370992D+02 -0.872232D+02 -0.634774D+02
      2   0.321409D+02  0.806721D+02  0.336751D+02
      3   0.461886D+01  0.887810D+01  0.161743D+02
 R(velocity) tensor in inp. orien. for State=          8
                 1             2             3 
      1  -0.184168D+02  0.112791D+03  0.891606D+01
      2  -0.123267D+02  0.528290D+02  0.137305D+02
      3  -0.189814D+02  0.691110D+02  0.253350D+02
         9        14.3160      8.7443      0.7183      7.9262
 Total R(velocity) tensor for State=          9
                 1             2             3 
      1   0.143160D+02  0.176948D+02 -0.693962D+01
      2  -0.186244D+01  0.874427D+01  0.539155D+01
      3   0.664813D+01  0.179154D+02  0.718291D+00
 R(velocity) tensor in inp. orien. for State=          9
                 1             2             3 
      1   0.134435D+02 -0.634792D+01 -0.111404D+02
      2  -0.482743D+01  0.185377D+02  0.120399D+02
      3   0.946199D+01 -0.519926D+01 -0.820263D+01
        10        19.8239    -14.3917      7.7214      4.3846
 Total R(velocity) tensor for State=         10
                 1             2             3 
      1   0.198239D+02  0.336674D+02  0.234686D+01
      2   0.596343D+00 -0.143917D+02  0.558004D+01
      3   0.144760D+01 -0.186515D+02  0.772141D+01
 R(velocity) tensor in inp. orien. for State=         10
                 1             2             3 
      1   0.180120D+02 -0.302279D+02 -0.226177D+02
      2  -0.236289D+01 -0.435718D+01 -0.192624D+02
      3   0.365866D+01 -0.460758D+01 -0.501187D+00
        11        54.5723    -93.2115    -15.6138    -18.0843
 Total R(velocity) tensor for State=         11
                 1             2             3 
      1   0.545723D+02  0.182467D+03  0.115461D+03
      2  -0.475416D+02 -0.932115D+02  0.217514D+02
      3  -0.956571D-01 -0.860234D+01 -0.156138D+02
 R(velocity) tensor in inp. orien. for State=         11
                 1             2             3 
      1   0.203334D+02 -0.214886D+03 -0.362109D+02
      2   0.298468D+02 -0.138165D+02 -0.405075D+02
      3   0.431743D+02 -0.718536D+02 -0.607699D+02
        12        37.8381    -49.1914    -16.9263     -9.4265
 Total R(velocity) tensor for State=         12
                 1             2             3 
      1   0.378381D+02  0.139588D+03  0.335952D+02
      2  -0.882046D+01 -0.491914D+02 -0.451446D+02
      3   0.411830D+01  0.600704D+01 -0.169263D+02
 R(velocity) tensor in inp. orien. for State=         12
                 1             2             3 
      1   0.244189D+02 -0.126220D+03 -0.615987D+02
      2  -0.132600D+02 -0.282518D+02  0.214324D+02
      3   0.857287D+01 -0.670337D+02 -0.244466D+02
        13         7.9090    -19.4653     -7.3679     -6.3081
 Total R(velocity) tensor for State=         13
                 1             2             3 
      1   0.790895D+01 -0.207089D+02  0.472659D+02
      2   0.237442D+02 -0.194653D+02  0.242105D+02
      3   0.245724D+01  0.156837D+01 -0.736791D+01
 R(velocity) tensor in inp. orien. for State=         13
                 1             2             3 
      1  -0.579840D+01 -0.190210D+02  0.482515D+02
      2  -0.137813D+02  0.612101D+01 -0.298378D+02
      3  -0.956094D+01  0.373028D+01 -0.192468D+02
        14       -28.8862      0.1550      3.4442     -8.4290
 Total R(velocity) tensor for State=         14
                 1             2             3 
      1  -0.288862D+02  0.119935D+02  0.188428D+02
      2  -0.387791D+01  0.154974D+00  0.939093D+01
      3   0.332970D+01 -0.257356D+01  0.344425D+01
 R(velocity) tensor in inp. orien. for State=         14
                 1             2             3 
      1  -0.322787D+02 -0.150889D+02 -0.214885D+01
      2   0.894799D+01  0.781425D+01 -0.707073D+01
      3  -0.203267D+00  0.288163D+00 -0.822468D+00
        15         1.4489     -2.8276      5.6723      1.4312
 Total R(velocity) tensor for State=         15
                 1             2             3 
      1   0.144886D+01 -0.421317D+01  0.260012D+02
      2  -0.402899D+01 -0.282758D+01  0.496918D+02
      3  -0.156661D+01  0.527761D+00  0.567226D+01
 R(velocity) tensor in inp. orien. for State=         15
                 1             2             3 
      1  -0.446874D+01 -0.133328D+02  0.194715D+02
      2   0.151334D+02  0.274304D+02 -0.312235D+02
      3   0.885494D+01  0.162537D+02 -0.186682D+02
        16       -12.4243     25.2855      8.4455      7.1022
 Total R(velocity) tensor for State=         16
                 1             2             3 
      1  -0.124243D+02  0.328997D+02  0.947123D+01
      2  -0.494404D+01  0.252855D+02  0.398747D+01
      3  -0.112191D+02  0.237374D+02  0.844546D+01
 R(velocity) tensor in inp. orien. for State=         16
                 1             2             3 
      1  -0.105320D+02 -0.211290D+02 -0.148569D+02
      2   0.156787D+02  0.330853D+02  0.236798D+02
      3  -0.757704D+01 -0.534599D+01 -0.124662D+01
        17        16.8724    -36.9592      2.3862     -5.9002
 Total R(velocity) tensor for State=         17
                 1             2             3 
      1   0.168724D+02 -0.427850D+02  0.493559D+02
      2   0.172347D+02 -0.369592D+02  0.200248D+02
      3  -0.126046D+01  0.184839D+01  0.238623D+01
 R(velocity) tensor in inp. orien. for State=         17
                 1             2             3 
      1   0.363795D+01 -0.523274D+01  0.646938D+02
      2  -0.742854D+01 -0.379548D+01 -0.430604D+02
      3  -0.863210D+01 -0.969479D+01 -0.175430D+02
        18        -3.5980    -15.5524     -3.6077     -7.5860
 Total R(velocity) tensor for State=         18
                 1             2             3 
      1  -0.359801D+01  0.353440D+01 -0.143447D+01
      2   0.305412D+02 -0.155524D+02  0.918978D+01
      3  -0.140511D+02  0.415436D+01 -0.360768D+01
 R(velocity) tensor in inp. orien. for State=         18
                 1             2             3 
      1   0.335281D+00 -0.139590D+01 -0.188295D+01
      2  -0.101140D+02 -0.667639D+00 -0.101200D+02
      3  -0.282341D+02  0.185969D+01 -0.224258D+02
        19        16.4042     -4.4252      0.0289      4.0026
 Total R(velocity) tensor for State=         19
                 1             2             3 
      1   0.164042D+02 -0.679430D+02  0.201527D+01
      2  -0.637260D+01 -0.442523D+01 -0.195446D+02
      3  -0.161481D+01  0.706155D+01  0.288988D-01
 R(velocity) tensor in inp. orien. for State=         19
                 1             2             3 
      1   0.151744D+02  0.436117D+02  0.517530D+02
      2  -0.106905D+01 -0.174328D+02  0.205018D+01
      3   0.249171D+01 -0.738054D+01  0.142663D+02
        20        -2.5433     -6.4710     19.8224      3.6027
 Total R(velocity) tensor for State=         20
                 1             2             3 
      1  -0.254330D+01  0.238654D+01 -0.113727D+02
      2   0.564048D+00 -0.647102D+01  0.282163D+02
      3  -0.939087D+01 -0.548261D+01  0.198224D+02
 R(velocity) tensor in inp. orien. for State=         20
                 1             2             3 
      1   0.429269D+01  0.831399D+01 -0.137467D+02
      2   0.144876D+02  0.144933D+02 -0.258755D+02
      3  -0.485253D+01  0.615017D+01 -0.797791D+01
 1/2[<0|r|b>*<b|rxdel|0> + (<0|rxdel|b>*<b|r|0>)*]
 Rotatory Strengths (R) in cgs (10**-40 erg-esu-cm/Gauss)
       state          XX          YY          ZZ     R(length)     R(au)
         1        26.8252    -15.5621      7.3244      6.1958      0.0131
         2        18.0363     -2.9236      0.0029      5.0385      0.0107
         3         3.9659     16.1092     -3.7845      5.4302      0.0115
         4        13.5856    -14.4133    -28.2830     -9.7035     -0.0206
         5        -1.8415      3.3596     16.7185      6.0789      0.0129
         6        66.4750   -141.3320    -21.3590    -32.0720     -0.0680
         7        19.7647     55.9092     26.0382     33.9040      0.0719
         8       135.0486    -63.8104     -9.7196     20.5062      0.0435
         9        -8.1440     14.1225     16.3073      7.4286      0.0158
        10       -17.2215     15.7352     12.5801      3.6979      0.0078
        11      -141.2576    138.7942    -48.7122    -17.0585     -0.0362
        12       -90.5853     66.6533     -3.7712     -9.2344     -0.0196
        13       -12.4897      4.5366    -10.2170     -6.0567     -0.0128
        14        -1.9972    -20.5110     -2.9697     -8.4926     -0.0180
        15        12.5874     -4.8865     -3.5236      1.3924      0.0030
        16        28.9836      2.6790     -9.2540      7.4695      0.0158
        17       -45.1837     25.9079     -1.9151     -7.0636     -0.0150
        18         1.9843     -7.2277    -15.0872     -6.7769     -0.0144
        19       -13.3725     16.0852      8.0187      3.5771      0.0076
        20        -0.1651     24.0512    -13.5609      3.4418      0.0073
  1/2[<0|del|b>*<b|r|0> + (<0|r|b>*<b|del|0>)*] (Au)
       state          X           Y           Z        Dip. S.   Osc.(frdel)
         1        -0.0002     -0.0008     -0.0013      0.0023      0.0015
         2        -0.0008      0.0000      0.0000      0.0008      0.0005
         3        -0.0002     -0.0182     -0.0001      0.0185      0.0123
         4        -0.0051     -0.0823     -0.0057      0.0931      0.0621
         5        -0.0001     -0.0066     -0.0107      0.0175      0.0116
         6        -0.0296     -0.0725     -0.0011      0.1032      0.0688
         7        -0.0488     -0.0451     -0.0043      0.0982      0.0655
         8        -0.2041     -0.0268     -0.0014      0.2323      0.1549
         9        -0.0019     -0.0003     -0.0017      0.0039      0.0026
        10        -0.0047     -0.0010     -0.0082      0.0139      0.0093
        11        -0.1302     -0.0269     -0.0073      0.1644      0.1096
        12        -0.0563     -0.0052     -0.0010      0.0625      0.0417
        13        -0.0041     -0.0219     -0.0028      0.0288      0.0192
        14        -0.0024     -0.0088     -0.0003      0.0115      0.0077
        15        -0.0197     -0.0362     -0.0004      0.0563      0.0375
        16        -0.0049      0.0000     -0.0094      0.0142      0.0095
        17        -0.0319     -0.0079     -0.0006      0.0404      0.0269
        18        -0.0012     -0.0008     -0.0258      0.0278      0.0185
        19        -0.0195     -0.0010     -0.0026      0.0230      0.0153
        20         0.0000     -0.0241     -0.0015      0.0256      0.0171
 Ground to excited state transition densities written to RWF  633

 Excitation energies and oscillator strengths:
 
 Excited State   1:      Singlet-A      3.0796 eV  402.60 nm  f=0.0013  <S**2>=0.000
      11 -> 13         0.21078
      12 -> 13         0.67001
 This state for optimization and/or second-order correction.
 Copying the excited state density for this state as the 1-particle RhoCI density.
 
 Excited State   2:      Singlet-A      4.0621 eV  305.22 nm  f=0.0005  <S**2>=0.000
      11 -> 13         0.66768
      12 -> 13        -0.21299
 
 Excited State   3:      Singlet-A      6.2909 eV  197.08 nm  f=0.0119  <S**2>=0.000
      12 -> 14         0.65595
      12 -> 18         0.10218
      12 -> 20        -0.15230
 
 Excited State   4:      Singlet-A      7.1483 eV  173.45 nm  f=0.0637  <S**2>=0.000
      11 -> 14        -0.20260
      12 -> 14        -0.10110
      12 -> 15         0.61369
      12 -> 16         0.17233
      12 -> 22        -0.12146
 
 Excited State   5:      Singlet-A      7.3311 eV  169.12 nm  f=0.0121  <S**2>=0.000
      12 -> 15        -0.14278
      12 -> 16         0.64646
      12 -> 23        -0.13439
 
 Excited State   6:      Singlet-A      7.5775 eV  163.62 nm  f=0.0699  <S**2>=0.000
       9 -> 13        -0.17106
      10 -> 13         0.47359
      11 -> 14        -0.36428
      11 -> 17         0.12596
      12 -> 15        -0.12631
      12 -> 17         0.22233
 
 Excited State   7:      Singlet-A      7.6459 eV  162.16 nm  f=0.0666  <S**2>=0.000
       9 -> 13         0.12839
      10 -> 13        -0.33444
      12 -> 17         0.56275
 
 Excited State   8:      Singlet-A      8.0396 eV  154.22 nm  f=0.1563  <S**2>=0.000
       9 -> 13        -0.21906
      10 -> 13         0.20240
      11 -> 14         0.44059
      11 -> 15        -0.16537
      12 -> 15         0.19256
      12 -> 17         0.31324
      12 -> 18        -0.11481
 
 Excited State   9:      Singlet-A      8.4440 eV  146.83 nm  f=0.0026  <S**2>=0.000
       9 -> 13        -0.29536
      11 -> 14         0.12801
      11 -> 15         0.40437
      11 -> 16        -0.15977
      11 -> 17         0.10654
      11 -> 18         0.10173
      12 -> 18         0.37755
 
 Excited State  10:      Singlet-A      8.5988 eV  144.19 nm  f=0.0092  <S**2>=0.000
       9 -> 13        -0.15787
      11 -> 15         0.28943
      11 -> 16         0.39858
      11 -> 17        -0.16098
      11 -> 19         0.14143
      12 -> 18        -0.29659
      12 -> 19         0.25795
 
 Excited State  11:      Singlet-A      8.7438 eV  141.80 nm  f=0.1109  <S**2>=0.000
       9 -> 13         0.35677
      10 -> 13         0.18264
      11 -> 14         0.20971
      11 -> 16         0.18665
      11 -> 17         0.36392
      12 -> 18         0.11933
      12 -> 19         0.26342
 
 Excited State  12:      Singlet-A      8.8310 eV  140.40 nm  f=0.0413  <S**2>=0.000
       9 -> 13         0.37443
      10 -> 13         0.21846
      11 -> 15         0.35602
      11 -> 16        -0.13851
      11 -> 17        -0.27172
      12 -> 19        -0.22282
 
 Excited State  13:      Singlet-A      8.8786 eV  139.64 nm  f=0.0194  <S**2>=0.000
      11 -> 15        -0.16498
      11 -> 16         0.24429
      11 -> 17        -0.37449
      12 -> 14        -0.15383
      12 -> 18         0.40631
      12 -> 20        -0.19147
 
 Excited State  14:      Singlet-A      9.1124 eV  136.06 nm  f=0.0078  <S**2>=0.000
      11 -> 16        -0.36890
      11 -> 17        -0.19803
      12 -> 18        -0.10437
      12 -> 19         0.51574
 
 Excited State  15:      Singlet-A      9.2621 eV  133.86 nm  f=0.0397  <S**2>=0.000
      11 -> 17        -0.15257
      12 -> 14         0.11794
      12 -> 18         0.15248
      12 -> 20         0.61962
 
 Excited State  16:      Singlet-A      9.6141 eV  128.96 nm  f=0.0092  <S**2>=0.000
       7 -> 13         0.24359
       8 -> 13         0.62491
      12 -> 21         0.14963
 
 Excited State  17:      Singlet-A      9.7600 eV  127.03 nm  f=0.0260  <S**2>=0.000
       8 -> 13        -0.10021
      12 -> 21         0.47386
      12 -> 22         0.42452
 
 Excited State  18:      Singlet-A      9.8193 eV  126.27 nm  f=0.0189  <S**2>=0.000
      10 -> 14        -0.24832
      11 -> 19        -0.11635
      12 -> 21        -0.37175
      12 -> 22         0.42629
      12 -> 25         0.12488
 
 Excited State  19:      Singlet-A      9.8923 eV  125.33 nm  f=0.0155  <S**2>=0.000
      10 -> 14         0.52113
      10 -> 15        -0.14123
      10 -> 17        -0.13410
      10 -> 20        -0.11541
      11 -> 18         0.22321
      12 -> 21        -0.24799
      12 -> 22         0.14873
 
 Excited State  20:      Singlet-A     10.0040 eV  123.93 nm  f=0.0176  <S**2>=0.000
      10 -> 14        -0.23855
      11 -> 18         0.58672
      11 -> 22         0.13578
 SavETr:  write IOETrn=   770 NScale= 10 NData=  16 NLR=1 LETran=     370.

 **********************************************************************

            Population analysis using the SCF density.

 **********************************************************************

 Orbital symmetries:
       Occupied  (A) (A) (A) (A) (A) (A) (A) (A) (A) (A) (A) (A)
       Virtual   (A) (A) (A) (A) (A) (A) (A) (A) (A) (A) (A) (A)
                 (A) (A) (A) (A) (A) (A) (A) (A) (A) (A) (A) (A)
                 (A) (A) (A) (A) (A) (A) (A) (A) (A) (A) (A) (A)
                 (A) (A) (A) (A) (A) (A) (A) (A) (A) (A) (A) (A)
                 (A) (A) (A) (A) (A) (A) (A) (A) (A) (A) (A) (A)
                 (A) (A) (A) (A) (A) (A) (A) (A) (A) (A) (A) (A)
                 (A) (A) (A) (A) (A) (A) (A) (A) (A) (A) (A) (A)
 The electronic state is 1-A.
 Alpha  occ. eigenvalues --  -19.25747 -14.41775 -10.40782  -1.13180  -0.98534
 Alpha  occ. eigenvalues --   -0.69425  -0.59429  -0.57382  -0.53903  -0.45022
 Alpha  occ. eigenvalues --   -0.37119  -0.32512
 Alpha virt. eigenvalues --   -0.04174   0.01638   0.03769   0.04424   0.06075
 Alpha virt. eigenvalues --    0.09128   0.10247   0.12231   0.13752   0.14421
 Alpha virt. eigenvalues --    0.16983   0.17776   0.18815   0.21209   0.23396
 Alpha virt. eigenvalues --    0.24933   0.25793   0.27645   0.29175   0.31188
 Alpha virt. eigenvalues --    0.34183   0.35908   0.39703   0.41629   0.43759
 Alpha virt. eigenvalues --    0.46873   0.48110   0.50074   0.51515   0.55574
 Alpha virt. eigenvalues --    0.56426   0.57800   0.59838   0.63275   0.64951
 Alpha virt. eigenvalues --    0.66808   0.72423   0.73218   0.77053   0.77824
 Alpha virt. eigenvalues --    0.82358   0.89454   0.92892   0.98308   1.04448
 Alpha virt. eigenvalues --    1.08856   1.09047   1.12853   1.19378   1.24366
 Alpha virt. eigenvalues --    1.25155   1.34934   1.43356   1.45757   1.52015
 Alpha virt. eigenvalues --    1.59334   1.65339   1.70837   1.73908   1.79523
 Alpha virt. eigenvalues --    1.90130   1.93339   1.94466   2.02063   2.08956
 Alpha virt. eigenvalues --    2.09236   2.11270   2.14418   2.18779   2.23673
 Alpha virt. eigenvalues --    2.33838   2.40854   2.54062   2.61192   2.68824
 Alpha virt. eigenvalues --    2.75277   2.91423   3.03463   3.21453   3.38060
 Alpha virt. eigenvalues --    3.39279   3.44384   3.51988   3.66586
          Condensed to atoms (all electrons):
              1          2          3          4          5          6
     1  C    4.687685   0.270412   0.269810  -0.153699  -0.068313   0.176815
     2  N    0.270412   6.160448  -0.018244   0.414492   0.345636  -0.048723
     3  O    0.269810  -0.018244   8.248532   0.006260   0.003988  -0.052165
     4  H   -0.153699   0.414492   0.006260   0.871950  -0.135748  -0.005365
     5  H   -0.068313   0.345636   0.003988  -0.135748   0.853750   0.006017
     6  H    0.176815  -0.048723  -0.052165  -0.005365   0.006017   1.155288
 Mulliken atomic charges:
              1
     1  C    0.817290
     2  N   -0.124020
     3  O   -0.458181
     4  H    0.002110
     5  H   -0.005331
     6  H   -0.231867
 Sum of Mulliken atomic charges =   0.00000
 Mulliken charges with hydrogens summed into heavy atoms:
              1
     1  C    0.585423
     2  N   -0.127241
     3  O   -0.458181
 Sum of Mulliken charges with hydrogens summed into heavy atoms =   0.00000
 Electronic spatial extent (au):  <R**2>=            159.7905
 Charge=              0.0000 electrons
 Dipole moment (field-independent basis, Debye):
    X=             -4.0377    Y=              2.4309    Z=              0.2455  Tot=              4.7194
 Quadrupole moment (field-independent basis, Debye-Ang):
   XX=            -18.5611   YY=            -20.3675   ZZ=            -15.5746
   XY=             -0.3841   XZ=             -0.3671   YZ=             -0.2566
 Traceless Quadrupole moment (field-independent basis, Debye-Ang):
   XX=             -0.3933   YY=             -2.1998   ZZ=              2.5932
   XY=             -0.3841   XZ=             -0.3671   YZ=             -0.2566
 Octapole moment (field-independent basis, Debye-Ang**2):
  XXX=            -14.6853  YYY=              3.0693  ZZZ=              1.2959  XYY=              1.4961
  XXY=              1.7699  XXZ=              0.4459  XZZ=             -3.6813  YZZ=              0.4669
  YYZ=              0.9459  XYZ=              0.6105
 Hexadecapole moment (field-independent basis, Debye-Ang**3):
 XXXX=           -132.3546 YYYY=            -39.3988 ZZZZ=            -20.1125 XXXY=             -1.9134
 XXXZ=              0.5851 YYYX=             -2.4078 YYYZ=              0.5767 ZZZX=             -1.0726
 ZZZY=             -0.7207 XXYY=            -34.0035 XXZZ=            -20.8504 YYZZ=            -10.0315
 XXYZ=             -1.4336 YYXZ=             -0.0080 ZZXY=             -0.4191
 N-N= 6.822626863095D+01 E-N=-5.340862036617D+02  KE= 1.684476026781D+02
 1\1\GINC-CLODOMIRA\SP\RTD-CAM-B3LYP-FC\Aug-CC-pVDZ\C1H3N1O1\DIEGOA\28-
 Oct-2019\0\\# cam-b3lyp/aug-cc-pvdz td(root=1,nstates=20) SCRF=PCM int
 (grid=ultrafine)\\Title\\0,1\C,0,-0.239542,0.190148,0.131589\N,0,1.058
 802,-0.329763,-0.106347\O,0,-1.292056,0.128222,-0.589641\H,0,1.499638,
 -0.778042,0.6928\H,0,1.723475,0.264394,-0.609908\H,0,-0.070546,1.25412
 7,0.481724\\Version=EM64L-G09RevA.01\State=1-A\HF=-169.7879776\RMSD=6.
 901e-09\PG=C01 [X(C1H3N1O1)]\\@


 The impersonal hand of government can
 never replace the helping hand of a neighbor.
                        -- Hubert H. Humphrey
 Job cpu time:  0 days  0 hours  7 minutes  5.8 seconds.
 File lengths (MBytes):  RWF=     54 Int=      0 D2E=      0 Chk=      7 Scr=      1
 Normal termination of Gaussian 09 at Mon Oct 28 20:00:16 2019.
