Title                                                                   
FOpt      RTD-CAM-B3LYP-FC                                            Aug-CC-pVDZ         
Number of atoms                            I                6
Info1-9                                    I   N=           9
          14          14           0           0           0         100
           2         218           1
Charge                                     I                0
Multiplicity                               I                1
Number of electrons                        I               24
Number of alpha electrons                  I               12
Number of beta electrons                   I               12
Number of basis functions                  I               96
Number of independent functions            I               96
Number of point charges in /Mol/           I                0
Number of translation vectors              I                0
Atomic numbers                             I   N=           6
           6           7           8           1           1           1
Nuclear charges                            R   N=           6
  6.00000000E+00  7.00000000E+00  8.00000000E+00  1.00000000E+00  1.00000000E+00
  1.00000000E+00
Current cartesian coordinates              R   N=          18
 -4.52669163E-01  3.59326749E-01  2.48666402E-01  2.00084579E+00 -6.23161449E-01
 -2.00967056E-01 -2.44163271E+00  2.42303553E-01 -1.11425967E+00  2.83390423E+00
 -1.47028723E+00  1.30920225E+00  3.25689499E+00  4.99632261E-01 -1.15255849E+00
 -1.33311739E-01  2.36995710E+00  9.10326627E-01
Force Field                                I                0
Int Atom Types                             I   N=           6
           0           0           0           0           0           0
MM charges                                 R   N=           6
  0.00000000E+00  0.00000000E+00  0.00000000E+00  0.00000000E+00  0.00000000E+00
  0.00000000E+00
Integer atomic weights                     I   N=           6
          12          14          16           1           1           1
Real atomic weights                        R   N=           6
  1.20000000E+01  1.40030740E+01  1.59949146E+01  1.00782504E+00  1.00782504E+00
  1.00782504E+00
Atom fragment info                         I   N=           6
           0           0           0           0           0           0
Atom residue num                           I   N=           6
           0           0           0           0           0           0
Nuclear spins                              I   N=           6
           0           2           0           1           1           1
Nuclear ZEff                               R   N=           6
 -3.60000000E+00 -4.55000000E+00 -5.60000000E+00 -1.00000000E+00 -1.00000000E+00
 -1.00000000E+00
Nuclear QMom                               R   N=           6
  0.00000000E+00  2.04400000E+00  0.00000000E+00  0.00000000E+00  0.00000000E+00
  0.00000000E+00
Nuclear GFac                               R   N=           6
  0.00000000E+00  4.03761000E-01  0.00000000E+00  2.79284600E+00  2.79284600E+00
  2.79284600E+00
MicOpt                                     I   N=           6
          -1          -1          -1          -1          -1          -1
Number of contracted shells                I               42
Number of primitive shells                 I               90
Pure/Cartesian d shells                    I                0
Pure/Cartesian f shells                    I                0
Highest angular momentum                   I                2
Largest degree of contraction              I                7
Shell types                                I   N=          42
           0           0           0           0           1           1
           1          -2          -2           0           0           0
           0           1           1           1          -2          -2
           0           0           0           0           1           1
           1          -2          -2           0           0           0
           1           1           0           0           0           1
           1           0           0           0           1           1
Number of primitives per shell             I   N=          42
           7           7           1           1           3           1
           1           1           1           7           7           1
           1           3           1           1           1           1
           7           7           1           1           3           1
           1           1           1           3           1           1
           1           1           3           1           1           1
           1           3           1           1           1           1
Shell to atom map                          I   N=          42
           1           1           1           1           1           1
           1           1           1           2           2           2
           2           2           2           2           2           2
           3           3           3           3           3           3
           3           3           3           4           4           4
           4           4           5           5           5           5
           5           6           6           6           6           6
Primitive exponents                        R   N=          90
  6.66500000E+03  1.00000000E+03  2.28000000E+02  6.47100000E+01  2.10600000E+01
  7.49500000E+00  2.79700000E+00  6.66500000E+03  2.28000000E+02  6.47100000E+01
  2.10600000E+01  7.49500000E+00  2.79700000E+00  5.21500000E-01  1.59600000E-01
  4.69000000E-02  9.43900000E+00  2.00200000E+00  5.45600000E-01  1.51700000E-01
  4.04100000E-02  5.50000000E-01  1.51000000E-01  9.04600000E+03  1.35700000E+03
  3.09300000E+02  8.77300000E+01  2.85600000E+01  1.02100000E+01  3.83800000E+00
  9.04600000E+03  3.09300000E+02  8.77300000E+01  2.85600000E+01  1.02100000E+01
  3.83800000E+00  7.46600000E-01  2.24800000E-01  6.12400000E-02  1.35500000E+01
  2.91700000E+00  7.97300000E-01  2.18500000E-01  5.61100000E-02  8.17000000E-01
  2.30000000E-01  1.17200000E+04  1.75900000E+03  4.00800000E+02  1.13700000E+02
  3.70300000E+01  1.32700000E+01  5.02500000E+00  1.17200000E+04  4.00800000E+02
  1.13700000E+02  3.70300000E+01  1.32700000E+01  5.02500000E+00  1.01300000E+00
  3.02300000E-01  7.89600000E-02  1.77000000E+01  3.85400000E+00  1.04600000E+00
  2.75300000E-01  6.85600000E-02  1.18500000E+00  3.32000000E-01  1.30100000E+01
  1.96200000E+00  4.44600000E-01  1.22000000E-01  2.97400000E-02  7.27000000E-01
  1.41000000E-01  1.30100000E+01  1.96200000E+00  4.44600000E-01  1.22000000E-01
  2.97400000E-02  7.27000000E-01  1.41000000E-01  1.30100000E+01  1.96200000E+00
  4.44600000E-01  1.22000000E-01  2.97400000E-02  7.27000000E-01  1.41000000E-01
Contraction coefficients                   R   N=          90
  6.93516317E-04  5.34150243E-03  2.71366714E-02  1.01992385E-01  2.75508636E-01
  4.51086433E-01  2.87565745E-01  7.73354740E-06  2.78072137E-04 -2.57875654E-03
 -8.95087684E-03 -1.06058855E-01 -1.31517686E-01  1.09948660E+00  1.00000000E+00
  1.00000000E+00  5.69792516E-02  3.13207212E-01  7.60376742E-01  1.00000000E+00
  1.00000000E+00  1.00000000E+00  1.00000000E+00  7.01708743E-04  5.40299880E-03
  2.74729510E-02  1.03514580E-01  2.79586579E-01  4.51317241E-01  2.80626875E-01
  7.77446797E-06  3.00742072E-04 -2.80016549E-03 -9.89708505E-03 -1.14331114E-01
 -1.18162383E-01  1.09786885E+00  1.00000000E+00  1.00000000E+00  5.89056768E-02
  3.20461107E-01  7.53042062E-01  1.00000000E+00  1.00000000E+00  1.00000000E+00
  1.00000000E+00  7.11864434E-04  5.48520199E-03  2.79099296E-02  1.05133208E-01
  2.84002490E-01  4.51673946E-01  2.73208126E-01  7.69030046E-06  3.13484579E-04
 -2.96614853E-03 -1.08753543E-02 -1.20753817E-01 -1.06275264E-01  1.09597548E+00
  1.00000000E+00  1.00000000E+00  6.26791663E-02  3.33536566E-01  7.41239642E-01
  1.00000000E+00  1.00000000E+00  1.00000000E+00  1.00000000E+00  3.34987264E-02
  2.34800801E-01  8.13682958E-01  1.00000000E+00  1.00000000E+00  1.00000000E+00
  1.00000000E+00  3.34987264E-02  2.34800801E-01  8.13682958E-01  1.00000000E+00
  1.00000000E+00  1.00000000E+00  1.00000000E+00  3.34987264E-02  2.34800801E-01
  8.13682958E-01  1.00000000E+00  1.00000000E+00  1.00000000E+00  1.00000000E+00
Coordinates of each shell                  R   N=         126
 -4.52669163E-01  3.59326749E-01  2.48666402E-01 -4.52669163E-01  3.59326749E-01
  2.48666402E-01 -4.52669163E-01  3.59326749E-01  2.48666402E-01 -4.52669163E-01
  3.59326749E-01  2.48666402E-01 -4.52669163E-01  3.59326749E-01  2.48666402E-01
 -4.52669163E-01  3.59326749E-01  2.48666402E-01 -4.52669163E-01  3.59326749E-01
  2.48666402E-01 -4.52669163E-01  3.59326749E-01  2.48666402E-01 -4.52669163E-01
  3.59326749E-01  2.48666402E-01  2.00084579E+00 -6.23161449E-01 -2.00967056E-01
  2.00084579E+00 -6.23161449E-01 -2.00967056E-01  2.00084579E+00 -6.23161449E-01
 -2.00967056E-01  2.00084579E+00 -6.23161449E-01 -2.00967056E-01  2.00084579E+00
 -6.23161449E-01 -2.00967056E-01  2.00084579E+00 -6.23161449E-01 -2.00967056E-01
  2.00084579E+00 -6.23161449E-01 -2.00967056E-01  2.00084579E+00 -6.23161449E-01
 -2.00967056E-01  2.00084579E+00 -6.23161449E-01 -2.00967056E-01 -2.44163271E+00
  2.42303553E-01 -1.11425967E+00 -2.44163271E+00  2.42303553E-01 -1.11425967E+00
 -2.44163271E+00  2.42303553E-01 -1.11425967E+00 -2.44163271E+00  2.42303553E-01
 -1.11425967E+00 -2.44163271E+00  2.42303553E-01 -1.11425967E+00 -2.44163271E+00
  2.42303553E-01 -1.11425967E+00 -2.44163271E+00  2.42303553E-01 -1.11425967E+00
 -2.44163271E+00  2.42303553E-01 -1.11425967E+00 -2.44163271E+00  2.42303553E-01
 -1.11425967E+00  2.83390423E+00 -1.47028723E+00  1.30920225E+00  2.83390423E+00
 -1.47028723E+00  1.30920225E+00  2.83390423E+00 -1.47028723E+00  1.30920225E+00
  2.83390423E+00 -1.47028723E+00  1.30920225E+00  2.83390423E+00 -1.47028723E+00
  1.30920225E+00  3.25689499E+00  4.99632261E-01 -1.15255849E+00  3.25689499E+00
  4.99632261E-01 -1.15255849E+00  3.25689499E+00  4.99632261E-01 -1.15255849E+00
  3.25689499E+00  4.99632261E-01 -1.15255849E+00  3.25689499E+00  4.99632261E-01
 -1.15255849E+00 -1.33311739E-01  2.36995710E+00  9.10326627E-01 -1.33311739E-01
  2.36995710E+00  9.10326627E-01 -1.33311739E-01  2.36995710E+00  9.10326627E-01
 -1.33311739E-01  2.36995710E+00  9.10326627E-01 -1.33311739E-01  2.36995710E+00
  9.10326627E-01
Density Number of contracted shells        I               84
Density Number of primitive shells         I               84
Density Pure/Cartesian d shells            I                0
Density Pure/Cartesian f shells            I                0
Density Highest angular momentum           I                3
Density Largest degree of contraction      I                1
Density Shell types                        I   N=          84
           0           0           0           0           0          -1
          -2          -1          -2          -1          -2          -3
          -1          -2          -3          -1          -2          -3
           0           0           0           0           0          -1
          -2          -1          -2          -1          -2          -3
          -1          -2          -3          -1          -2          -3
           0           0           0           0           0          -1
          -2          -1          -2          -1          -2          -3
          -1          -2          -3          -1          -2          -3
           0           0          -1          -2          -1          -2
          -1          -2          -1          -2           0           0
          -1          -2          -1          -2          -1          -2
          -1          -2           0           0          -1          -2
          -1          -2          -1          -2          -1          -2
Density Number of primitives per shell     I   N=          84
           1           1           1           1           1           1
           1           1           1           1           1           1
           1           1           1           1           1           1
           1           1           1           1           1           1
           1           1           1           1           1           1
           1           1           1           1           1           1
           1           1           1           1           1           1
           1           1           1           1           1           1
           1           1           1           1           1           1
           1           1           1           1           1           1
           1           1           1           1           1           1
           1           1           1           1           1           1
           1           1           1           1           1           1
           1           1           1           1           1           1
Density Shell to atom map                  I   N=          84
           1           1           1           1           1           1
           1           1           1           1           1           1
           1           1           1           1           1           1
           2           2           2           2           2           2
           2           2           2           2           2           2
           2           2           2           2           2           2
           3           3           3           3           3           3
           3           3           3           3           3           3
           3           3           3           3           3           3
           4           4           4           4           4           4
           4           4           4           4           5           5
           5           5           5           5           5           5
           5           5           6           6           6           6
           6           6           6           6           6           6
Density Primitive exponents                R   N=          84
  1.33300000E+04  2.00000000E+03  4.56000000E+02  1.29420000E+02  4.21200000E+01
  1.68220457E+01  1.68220457E+01  4.73269226E+00  4.73269226E+00  1.06897221E+00
  1.06897221E+00  1.06897221E+00  3.10840122E-01  3.10840122E-01  3.10840122E-01
  8.70684558E-02  8.70684558E-02  8.70684558E-02  1.80920000E+04  2.71400000E+03
  6.18600000E+02  1.75460000E+02  5.71200000E+01  2.35240728E+01  2.35240728E+01
  6.69191931E+00  6.69191931E+00  1.55251192E+00  1.55251192E+00  1.55251192E+00
  4.45796600E-01  4.45796600E-01  4.45796600E-01  1.17237816E-01  1.17237816E-01
  1.17237816E-01  2.34400000E+04  3.51800000E+03  8.01600000E+02  2.27400000E+02
  7.40600000E+01  3.06515252E+01  3.06515252E+01  8.80144306E+00  8.80144306E+00
  2.20889185E+00  2.20889185E+00  2.20889185E+00  5.90645853E-01  5.90645853E-01
  5.90645853E-01  1.47152949E-01  1.47152949E-01  1.47152949E-01  2.60200000E+01
  3.92400000E+00  1.45400000E+00  1.45400000E+00  8.89200000E-01  8.89200000E-01
  2.62312790E-01  2.62312790E-01  5.94800000E-02  5.94800000E-02  2.60200000E+01
  3.92400000E+00  1.45400000E+00  1.45400000E+00  8.89200000E-01  8.89200000E-01
  2.62312790E-01  2.62312790E-01  5.94800000E-02  5.94800000E-02  2.60200000E+01
  3.92400000E+00  1.45400000E+00  1.45400000E+00  8.89200000E-01  8.89200000E-01
  2.62312790E-01  2.62312790E-01  5.94800000E-02  5.94800000E-02
Density Contraction coefficients           R   N=          84
  1.00000000E+00  1.00000000E+00  1.00000000E+00  1.00000000E+00  1.00000000E+00
  1.00000000E+00  1.00000000E+00  1.00000000E+00  1.00000000E+00  1.00000000E+00
  1.00000000E+00  1.00000000E+00  1.00000000E+00  1.00000000E+00  1.00000000E+00
  1.00000000E+00  1.00000000E+00  1.00000000E+00  1.00000000E+00  1.00000000E+00
  1.00000000E+00  1.00000000E+00  1.00000000E+00  1.00000000E+00  1.00000000E+00
  1.00000000E+00  1.00000000E+00  1.00000000E+00  1.00000000E+00  1.00000000E+00
  1.00000000E+00  1.00000000E+00  1.00000000E+00  1.00000000E+00  1.00000000E+00
  1.00000000E+00  1.00000000E+00  1.00000000E+00  1.00000000E+00  1.00000000E+00
  1.00000000E+00  1.00000000E+00  1.00000000E+00  1.00000000E+00  1.00000000E+00
  1.00000000E+00  1.00000000E+00  1.00000000E+00  1.00000000E+00  1.00000000E+00
  1.00000000E+00  1.00000000E+00  1.00000000E+00  1.00000000E+00  1.00000000E+00
  1.00000000E+00  1.00000000E+00  1.00000000E+00  1.00000000E+00  1.00000000E+00
  1.00000000E+00  1.00000000E+00  1.00000000E+00  1.00000000E+00  1.00000000E+00
  1.00000000E+00  1.00000000E+00  1.00000000E+00  1.00000000E+00  1.00000000E+00
  1.00000000E+00  1.00000000E+00  1.00000000E+00  1.00000000E+00  1.00000000E+00
  1.00000000E+00  1.00000000E+00  1.00000000E+00  1.00000000E+00  1.00000000E+00
  1.00000000E+00  1.00000000E+00  1.00000000E+00  1.00000000E+00
Density P(S=P) Contraction coefficients    R   N=          84
  0.00000000E+00  0.00000000E+00  0.00000000E+00  0.00000000E+00  0.00000000E+00
  1.00000000E+00  0.00000000E+00  1.00000000E+00  0.00000000E+00  1.00000000E+00
  0.00000000E+00  0.00000000E+00  1.00000000E+00  0.00000000E+00  0.00000000E+00
  1.00000000E+00  0.00000000E+00  0.00000000E+00  0.00000000E+00  0.00000000E+00
  0.00000000E+00  0.00000000E+00  0.00000000E+00  1.00000000E+00  0.00000000E+00
  1.00000000E+00  0.00000000E+00  1.00000000E+00  0.00000000E+00  0.00000000E+00
  1.00000000E+00  0.00000000E+00  0.00000000E+00  1.00000000E+00  0.00000000E+00
  0.00000000E+00  0.00000000E+00  0.00000000E+00  0.00000000E+00  0.00000000E+00
  0.00000000E+00  1.00000000E+00  0.00000000E+00  1.00000000E+00  0.00000000E+00
  1.00000000E+00  0.00000000E+00  0.00000000E+00  1.00000000E+00  0.00000000E+00
  0.00000000E+00  1.00000000E+00  0.00000000E+00  0.00000000E+00  0.00000000E+00
  0.00000000E+00  1.00000000E+00  0.00000000E+00  1.00000000E+00  0.00000000E+00
  1.00000000E+00  0.00000000E+00  1.00000000E+00  0.00000000E+00  0.00000000E+00
  0.00000000E+00  1.00000000E+00  0.00000000E+00  1.00000000E+00  0.00000000E+00
  1.00000000E+00  0.00000000E+00  1.00000000E+00  0.00000000E+00  0.00000000E+00
  0.00000000E+00  1.00000000E+00  0.00000000E+00  1.00000000E+00  0.00000000E+00
  1.00000000E+00  0.00000000E+00  1.00000000E+00  0.00000000E+00
Density Coordinates of each shell          R   N=         252
 -4.52669163E-01  3.59326749E-01  2.48666402E-01 -4.52669163E-01  3.59326749E-01
  2.48666402E-01 -4.52669163E-01  3.59326749E-01  2.48666402E-01 -4.52669163E-01
  3.59326749E-01  2.48666402E-01 -4.52669163E-01  3.59326749E-01  2.48666402E-01
 -4.52669163E-01  3.59326749E-01  2.48666402E-01 -4.52669163E-01  3.59326749E-01
  2.48666402E-01 -4.52669163E-01  3.59326749E-01  2.48666402E-01 -4.52669163E-01
  3.59326749E-01  2.48666402E-01 -4.52669163E-01  3.59326749E-01  2.48666402E-01
 -4.52669163E-01  3.59326749E-01  2.48666402E-01 -4.52669163E-01  3.59326749E-01
  2.48666402E-01 -4.52669163E-01  3.59326749E-01  2.48666402E-01 -4.52669163E-01
  3.59326749E-01  2.48666402E-01 -4.52669163E-01  3.59326749E-01  2.48666402E-01
 -4.52669163E-01  3.59326749E-01  2.48666402E-01 -4.52669163E-01  3.59326749E-01
  2.48666402E-01 -4.52669163E-01  3.59326749E-01  2.48666402E-01  2.00084579E+00
 -6.23161449E-01 -2.00967056E-01  2.00084579E+00 -6.23161449E-01 -2.00967056E-01
  2.00084579E+00 -6.23161449E-01 -2.00967056E-01  2.00084579E+00 -6.23161449E-01
 -2.00967056E-01  2.00084579E+00 -6.23161449E-01 -2.00967056E-01  2.00084579E+00
 -6.23161449E-01 -2.00967056E-01  2.00084579E+00 -6.23161449E-01 -2.00967056E-01
  2.00084579E+00 -6.23161449E-01 -2.00967056E-01  2.00084579E+00 -6.23161449E-01
 -2.00967056E-01  2.00084579E+00 -6.23161449E-01 -2.00967056E-01  2.00084579E+00
 -6.23161449E-01 -2.00967056E-01  2.00084579E+00 -6.23161449E-01 -2.00967056E-01
  2.00084579E+00 -6.23161449E-01 -2.00967056E-01  2.00084579E+00 -6.23161449E-01
 -2.00967056E-01  2.00084579E+00 -6.23161449E-01 -2.00967056E-01  2.00084579E+00
 -6.23161449E-01 -2.00967056E-01  2.00084579E+00 -6.23161449E-01 -2.00967056E-01
  2.00084579E+00 -6.23161449E-01 -2.00967056E-01 -2.44163271E+00  2.42303553E-01
 -1.11425967E+00 -2.44163271E+00  2.42303553E-01 -1.11425967E+00 -2.44163271E+00
  2.42303553E-01 -1.11425967E+00 -2.44163271E+00  2.42303553E-01 -1.11425967E+00
 -2.44163271E+00  2.42303553E-01 -1.11425967E+00 -2.44163271E+00  2.42303553E-01
 -1.11425967E+00 -2.44163271E+00  2.42303553E-01 -1.11425967E+00 -2.44163271E+00
  2.42303553E-01 -1.11425967E+00 -2.44163271E+00  2.42303553E-01 -1.11425967E+00
 -2.44163271E+00  2.42303553E-01 -1.11425967E+00 -2.44163271E+00  2.42303553E-01
 -1.11425967E+00 -2.44163271E+00  2.42303553E-01 -1.11425967E+00 -2.44163271E+00
  2.42303553E-01 -1.11425967E+00 -2.44163271E+00  2.42303553E-01 -1.11425967E+00
 -2.44163271E+00  2.42303553E-01 -1.11425967E+00 -2.44163271E+00  2.42303553E-01
 -1.11425967E+00 -2.44163271E+00  2.42303553E-01 -1.11425967E+00 -2.44163271E+00
  2.42303553E-01 -1.11425967E+00  2.83390423E+00 -1.47028723E+00  1.30920225E+00
  2.83390423E+00 -1.47028723E+00  1.30920225E+00  2.83390423E+00 -1.47028723E+00
  1.30920225E+00  2.83390423E+00 -1.47028723E+00  1.30920225E+00  2.83390423E+00
 -1.47028723E+00  1.30920225E+00  2.83390423E+00 -1.47028723E+00  1.30920225E+00
  2.83390423E+00 -1.47028723E+00  1.30920225E+00  2.83390423E+00 -1.47028723E+00
  1.30920225E+00  2.83390423E+00 -1.47028723E+00  1.30920225E+00  2.83390423E+00
 -1.47028723E+00  1.30920225E+00  3.25689499E+00  4.99632261E-01 -1.15255849E+00
  3.25689499E+00  4.99632261E-01 -1.15255849E+00  3.25689499E+00  4.99632261E-01
 -1.15255849E+00  3.25689499E+00  4.99632261E-01 -1.15255849E+00  3.25689499E+00
  4.99632261E-01 -1.15255849E+00  3.25689499E+00  4.99632261E-01 -1.15255849E+00
  3.25689499E+00  4.99632261E-01 -1.15255849E+00  3.25689499E+00  4.99632261E-01
 -1.15255849E+00  3.25689499E+00  4.99632261E-01 -1.15255849E+00  3.25689499E+00
  4.99632261E-01 -1.15255849E+00 -1.33311739E-01  2.36995710E+00  9.10326627E-01
 -1.33311739E-01  2.36995710E+00  9.10326627E-01 -1.33311739E-01  2.36995710E+00
  9.10326627E-01 -1.33311739E-01  2.36995710E+00  9.10326627E-01 -1.33311739E-01
  2.36995710E+00  9.10326627E-01 -1.33311739E-01  2.36995710E+00  9.10326627E-01
 -1.33311739E-01  2.36995710E+00  9.10326627E-01 -1.33311739E-01  2.36995710E+00
  9.10326627E-01 -1.33311739E-01  2.36995710E+00  9.10326627E-01 -1.33311739E-01
  2.36995710E+00  9.10326627E-01
Constraint Structure                       R   N=          18
 -4.16745084E-01  7.08930759E-01  4.96943171E-01  2.03355697E+00 -4.38486383E-01
 -1.52421530E-01 -2.23199711E+00 -2.34195649E-01 -7.85116958E-01  2.52729516E+00
 -2.05634896E+00  7.82395752E-01  3.54074017E+00  5.78259976E-01 -7.83922651E-01
 -3.88818711E-01  2.81961123E+00  4.42532286E-01
Num ILSW                                   I              100
ILSW                                       I   N=         100
           0           0           0           0           2           0
           0           0           0           0       20419          -1
           5           0           0           0           0           0
           0           0           1           0           1           0
           1           1           0           0           0           0
           0           0      100000           0          -1           0
           0           0           0           0           0           0
           0           0           0           1           0           0
           0           0           1           0           0           0
           0           0           4          40           0           0
           0           0          40           0           0           0
           0           0           0           0           0           0
           0           0           0           0           0           0
           0           0           0           0           0           0
           0           0           0           0           0           0
           0           0           0           0           0           0
           0           0           0           0
Num RLSW                                   I               40
RLSW                                       R   N=          40
  1.00000000E+00  1.00000000E+00  1.00000000E+00  8.10000000E-01  1.00000000E+00
  0.00000000E+00  3.30000000E-01  1.90000000E-01  0.00000000E+00  4.60000000E-01
  0.00000000E+00  3.30000000E-01  1.90000000E-01  0.00000000E+00  4.60000000E-01
  0.00000000E+00  0.00000000E+00  1.00000000E+00  0.00000000E+00  0.00000000E+00
  0.00000000E+00  0.00000000E+00  1.00000000E+00  0.00000000E+00  0.00000000E+00
  0.00000000E+00  0.00000000E+00  1.00000000E+00  0.00000000E+00  0.00000000E+00
  0.00000000E+00  0.00000000E+00  0.00000000E+00  0.00000000E+00  0.00000000E+00
  0.00000000E+00  0.00000000E+00  0.00000000E+00  1.00000000E+00  1.00000000E+00
MxBond                                     I                3
NBond                                      I   N=           6
           3           3           1           1           1           1
IBond                                      I   N=          18
           2           3           6           1           4           5
           1           0           0           2           0           0
           2           0           0           1           0           0
RBond                                      R   N=          18
  1.00000000E+00  2.00000000E+00  1.00000000E+00  1.00000000E+00  1.00000000E+00
  1.00000000E+00  2.00000000E+00  0.00000000E+00  0.00000000E+00  1.00000000E+00
  0.00000000E+00  0.00000000E+00  1.00000000E+00  0.00000000E+00  0.00000000E+00
  1.00000000E+00  0.00000000E+00  0.00000000E+00
Virial Ratio                               R      2.007957130593041E+00
SCF Energy                                 R     -1.697879699596459E+02
CIS Energy                                 R     -1.696753211544044E+02
Total Energy                               R     -1.696753211544044E+02
Post-SCF wavefunction norm                 R      1.000000000000000E+00
RMS Force                                  R      7.032222286978310E-05
RMS Density                                R      3.436209389196367E-09
External E-field                           R   N=          35
  0.00000000E+00  0.00000000E+00  0.00000000E+00  0.00000000E+00  0.00000000E+00
  0.00000000E+00  0.00000000E+00  0.00000000E+00  0.00000000E+00  0.00000000E+00
  0.00000000E+00  0.00000000E+00  0.00000000E+00  0.00000000E+00  0.00000000E+00
  0.00000000E+00  0.00000000E+00  0.00000000E+00  0.00000000E+00  0.00000000E+00
  0.00000000E+00  0.00000000E+00  0.00000000E+00  0.00000000E+00  0.00000000E+00
  0.00000000E+00  0.00000000E+00  0.00000000E+00  0.00000000E+00  0.00000000E+00
  0.00000000E+00  0.00000000E+00  0.00000000E+00  0.00000000E+00  0.00000000E+00
IOpCl                                      I                0
IROHF                                      I                0
Alpha Orbital Energies                     R   N=          96
 -1.92574923E+01 -1.44177804E+01 -1.04078453E+01 -1.13182506E+00 -9.85377133E-01
 -6.94282861E-01 -5.94327624E-01 -5.73851721E-01 -5.39047348E-01 -4.50238187E-01
 -3.71216574E-01 -3.25150999E-01 -4.17649635E-02  1.63659349E-02  3.76799592E-02
  4.42283509E-02  6.07369593E-02  9.12571362E-02  1.02463769E-01  1.22285702E-01
  1.37512343E-01  1.44202362E-01  1.69803578E-01  1.77739035E-01  1.88120410E-01
  2.12079250E-01  2.33946820E-01  2.49315625E-01  2.57911095E-01  2.76433477E-01
  2.91725826E-01  3.11820267E-01  3.41795140E-01  3.59075457E-01  3.97009638E-01
  4.16257619E-01  4.37555448E-01  4.68689213E-01  4.81097276E-01  5.00723005E-01
  5.15124818E-01  5.55709737E-01  5.64234115E-01  5.77974334E-01  5.98360009E-01
  6.32728510E-01  6.49485539E-01  6.68057185E-01  7.24197178E-01  7.32161107E-01
  7.70493518E-01  7.78207002E-01  8.23554975E-01  8.94525354E-01  9.28880251E-01
  9.83057993E-01  1.04446684E+00  1.08854657E+00  1.09044814E+00  1.12850398E+00
  1.19377456E+00  1.24362987E+00  1.25151749E+00  1.34930739E+00  1.43353296E+00
  1.45753569E+00  1.52012641E+00  1.59330567E+00  1.65336945E+00  1.70834214E+00
  1.73905484E+00  1.79519820E+00  1.90127089E+00  1.93335921E+00  1.94461594E+00
  2.02060104E+00  2.08953312E+00  2.09232396E+00  2.11266702E+00  2.14414642E+00
  2.18775773E+00  2.23670041E+00  2.33834740E+00  2.40850524E+00  2.54058982E+00
  2.61188623E+00  2.68820632E+00  2.75273792E+00  2.91421047E+00  3.03459902E+00
  3.21449169E+00  3.38058095E+00  3.39276955E+00  3.44382301E+00  3.51985790E+00
  3.66584229E+00
Alpha MO coefficients                      R   N=        9216
  7.57725414E-05  4.67659859E-04  1.99963053E-02  8.10053148E-03 -7.98708382E-04
  1.16701667E-04 -9.52620717E-04 -1.28140098E-02 -2.05313362E-04 -7.64342233E-03
 -3.09734665E-04  7.02463407E-04 -1.61675788E-05 -2.97911756E-04  2.54363540E-05
  2.68580875E-04 -7.96931373E-05 -8.96318550E-05  8.05891580E-04  5.29686370E-03
  1.83922441E-04  2.69360972E-03  3.53762325E-04  4.53778623E-05  2.16220139E-04
 -8.44903857E-05 -3.26198177E-03 -1.63350812E-05  1.29526474E-05  2.66179299E-05
  5.94289690E-04 -6.07625575E-04 -9.89406170E-05  4.36664496E-05 -1.11002741E-03
  2.90253281E-04  1.20485203E-04 -3.31038793E-05  1.07616894E-04 -1.30240193E-04
 -1.15776160E-05  6.01024559E-05 -1.64503177E-04 -4.27622719E-04 -8.45017337E-04
  4.07209868E-04  9.96841819E-01  2.55669344E-02 -2.70851671E-02 -1.02227577E-02
  1.47063130E-03 -1.65445921E-06  9.80787980E-04 -7.34940122E-03 -4.43872370E-04
 -4.72532147E-03 -1.87975577E-03 -3.05635631E-04 -1.16272718E-03  1.17819268E-06
  6.07800098E-05 -2.97722742E-05  2.73718278E-05  2.71860290E-05 -5.19422790E-06
 -1.20798573E-03  1.49413626E-05 -7.36414099E-04 -1.84520475E-04  2.42275948E-05