Title                                                                   
FOpt      RTD-CAM-B3LYP-FC                                            Aug-CC-pVDZ         
Number of atoms                            I                6
Info1-9                                    I   N=           9
          14          14           0           0           0         100
           2         218           1
Charge                                     I                0
Multiplicity                               I                1
Number of electrons                        I               24
Number of alpha electrons                  I               12
Number of beta electrons                   I               12
Number of basis functions                  I               96
Number of independent functions            I               96
Number of point charges in /Mol/           I                0
Number of translation vectors              I                0
Atomic numbers                             I   N=           6
           6           7           8           1           1           1
Nuclear charges                            R   N=           6
  6.00000000E+00  7.00000000E+00  8.00000000E+00  1.00000000E+00  1.00000000E+00
  1.00000000E+00
Current cartesian coordinates              R   N=          18
 -1.95861881E-01  7.62430693E-01  4.45085781E-05  2.02916492E+00 -3.15183299E-01
  1.54576306E-04 -2.19107656E+00 -5.14427144E-01 -1.56543824E-04  2.17650440E+00
 -2.25286923E+00  1.41718764E-04  3.61811339E+00  7.54858094E-01  2.74753240E-04
 -3.72812861E-01  2.94296375E+00 -4.89424926E-05
Force Field                                I                0
Int Atom Types                             I   N=           6
           0           0           0           0           0           0
MM charges                                 R   N=           6
  0.00000000E+00  0.00000000E+00  0.00000000E+00  0.00000000E+00  0.00000000E+00
  0.00000000E+00
Integer atomic weights                     I   N=           6
          12          14          16           1           1           1
Real atomic weights                        R   N=           6
  1.20000000E+01  1.40030740E+01  1.59949146E+01  1.00782504E+00  1.00782504E+00
  1.00782504E+00
Atom fragment info                         I   N=           6
           0           0           0           0           0           0
Atom residue num                           I   N=           6
           0           0           0           0           0           0
Nuclear spins                              I   N=           6
           0           2           0           1           1           1
Nuclear ZEff                               R   N=           6
 -3.60000000E+00 -4.55000000E+00 -5.60000000E+00 -1.00000000E+00 -1.00000000E+00
 -1.00000000E+00
Nuclear QMom                               R   N=           6
  0.00000000E+00  2.04400000E+00  0.00000000E+00  0.00000000E+00  0.00000000E+00
  0.00000000E+00
Nuclear GFac                               R   N=           6
  0.00000000E+00  4.03761000E-01  0.00000000E+00  2.79284600E+00  2.79284600E+00
  2.79284600E+00
MicOpt                                     I   N=           6
          -1          -1          -1          -1          -1          -1
Number of contracted shells                I               42
Number of primitive shells                 I               90
Pure/Cartesian d shells                    I                0
Pure/Cartesian f shells                    I                0
Highest angular momentum                   I                2
Largest degree of contraction              I                7
Shell types                                I   N=          42
           0           0           0           0           1           1
           1          -2          -2           0           0           0
           0           1           1           1          -2          -2
           0           0           0           0           1           1
           1          -2          -2           0           0           0
           1           1           0           0           0           1
           1           0           0           0           1           1
Number of primitives per shell             I   N=          42
           7           7           1           1           3           1
           1           1           1           7           7           1
           1           3           1           1           1           1
           7           7           1           1           3           1
           1           1           1           3           1           1
           1           1           3           1           1           1
           1           3           1           1           1           1
Shell to atom map                          I   N=          42
           1           1           1           1           1           1
           1           1           1           2           2           2
           2           2           2           2           2           2
           3           3           3           3           3           3
           3           3           3           4           4           4
           4           4           5           5           5           5
           5           6           6           6           6           6
Primitive exponents                        R   N=          90
  6.66500000E+03  1.00000000E+03  2.28000000E+02  6.47100000E+01  2.10600000E+01
  7.49500000E+00  2.79700000E+00  6.66500000E+03  2.28000000E+02  6.47100000E+01
  2.10600000E+01  7.49500000E+00  2.79700000E+00  5.21500000E-01  1.59600000E-01
  4.69000000E-02  9.43900000E+00  2.00200000E+00  5.45600000E-01  1.51700000E-01
  4.04100000E-02  5.50000000E-01  1.51000000E-01  9.04600000E+03  1.35700000E+03
  3.09300000E+02  8.77300000E+01  2.85600000E+01  1.02100000E+01  3.83800000E+00
  9.04600000E+03  3.09300000E+02  8.77300000E+01  2.85600000E+01  1.02100000E+01
  3.83800000E+00  7.46600000E-01  2.24800000E-01  6.12400000E-02  1.35500000E+01
  2.91700000E+00  7.97300000E-01  2.18500000E-01  5.61100000E-02  8.17000000E-01
  2.30000000E-01  1.17200000E+04  1.75900000E+03  4.00800000E+02  1.13700000E+02
  3.70300000E+01  1.32700000E+01  5.02500000E+00  1.17200000E+04  4.00800000E+02
  1.13700000E+02  3.70300000E+01  1.32700000E+01  5.02500000E+00  1.01300000E+00
  3.02300000E-01  7.89600000E-02  1.77000000E+01  3.85400000E+00  1.04600000E+00
  2.75300000E-01  6.85600000E-02  1.18500000E+00  3.32000000E-01  1.30100000E+01
  1.96200000E+00  4.44600000E-01  1.22000000E-01  2.97400000E-02  7.27000000E-01
  1.41000000E-01  1.30100000E+01  1.96200000E+00  4.44600000E-01  1.22000000E-01
  2.97400000E-02  7.27000000E-01  1.41000000E-01  1.30100000E+01  1.96200000E+00
  4.44600000E-01  1.22000000E-01  2.97400000E-02  7.27000000E-01  1.41000000E-01
Contraction coefficients                   R   N=          90
  6.93516317E-04  5.34150243E-03  2.71366714E-02  1.01992385E-01  2.75508636E-01
  4.51086433E-01  2.87565745E-01  7.73354740E-06  2.78072137E-04 -2.57875654E-03
 -8.95087684E-03 -1.06058855E-01 -1.31517686E-01  1.09948660E+00  1.00000000E+00
  1.00000000E+00  5.69792516E-02  3.13207212E-01  7.60376742E-01  1.00000000E+00
  1.00000000E+00  1.00000000E+00  1.00000000E+00  7.01708743E-04  5.40299880E-03
  2.74729510E-02  1.03514580E-01  2.79586579E-01  4.51317241E-01  2.80626875E-01
  7.77446797E-06  3.00742072E-04 -2.80016549E-03 -9.89708505E-03 -1.14331114E-01
 -1.18162383E-01  1.09786885E+00  1.00000000E+00  1.00000000E+00  5.89056768E-02
  3.20461107E-01  7.53042062E-01  1.00000000E+00  1.00000000E+00  1.00000000E+00
  1.00000000E+00  7.11864434E-04  5.48520199E-03  2.79099296E-02  1.05133208E-01
  2.84002490E-01  4.51673946E-01  2.73208126E-01  7.69030046E-06  3.13484579E-04
 -2.96614853E-03 -1.08753543E-02 -1.20753817E-01 -1.06275264E-01  1.09597548E+00
  1.00000000E+00  1.00000000E+00  6.26791663E-02  3.33536566E-01  7.41239642E-01
  1.00000000E+00  1.00000000E+00  1.00000000E+00  1.00000000E+00  3.34987264E-02
  2.34800801E-01  8.13682958E-01  1.00000000E+00  1.00000000E+00  1.00000000E+00
  1.00000000E+00  3.34987264E-02  2.34800801E-01  8.13682958E-01  1.00000000E+00
  1.00000000E+00  1.00000000E+00  1.00000000E+00  3.34987264E-02  2.34800801E-01
  8.13682958E-01  1.00000000E+00  1.00000000E+00  1.00000000E+00  1.00000000E+00
Coordinates of each shell                  R   N=         126
 -1.95861881E-01  7.62430693E-01  4.45085781E-05 -1.95861881E-01  7.62430693E-01
  4.45085781E-05 -1.95861881E-01  7.62430693E-01  4.45085781E-05 -1.95861881E-01
  7.62430693E-01  4.45085781E-05 -1.95861881E-01  7.62430693E-01  4.45085781E-05
 -1.95861881E-01  7.62430693E-01  4.45085781E-05 -1.95861881E-01  7.62430693E-01
  4.45085781E-05 -1.95861881E-01  7.62430693E-01  4.45085781E-05 -1.95861881E-01
  7.62430693E-01  4.45085781E-05  2.02916492E+00 -3.15183299E-01  1.54576306E-04
  2.02916492E+00 -3.15183299E-01  1.54576306E-04  2.02916492E+00 -3.15183299E-01
  1.54576306E-04  2.02916492E+00 -3.15183299E-01  1.54576306E-04  2.02916492E+00
 -3.15183299E-01  1.54576306E-04  2.02916492E+00 -3.15183299E-01  1.54576306E-04
  2.02916492E+00 -3.15183299E-01  1.54576306E-04  2.02916492E+00 -3.15183299E-01
  1.54576306E-04  2.02916492E+00 -3.15183299E-01  1.54576306E-04 -2.19107656E+00
 -5.14427144E-01 -1.56543824E-04 -2.19107656E+00 -5.14427144E-01 -1.56543824E-04
 -2.19107656E+00 -5.14427144E-01 -1.56543824E-04 -2.19107656E+00 -5.14427144E-01
 -1.56543824E-04 -2.19107656E+00 -5.14427144E-01 -1.56543824E-04 -2.19107656E+00
 -5.14427144E-01 -1.56543824E-04 -2.19107656E+00 -5.14427144E-01 -1.56543824E-04
 -2.19107656E+00 -5.14427144E-01 -1.56543824E-04 -2.19107656E+00 -5.14427144E-01
 -1.56543824E-04  2.17650440E+00 -2.25286923E+00  1.41718764E-04  2.17650440E+00
 -2.25286923E+00  1.41718764E-04  2.17650440E+00 -2.25286923E+00  1.41718764E-04
  2.17650440E+00 -2.25286923E+00  1.41718764E-04  2.17650440E+00 -2.25286923E+00
  1.41718764E-04  3.61811339E+00  7.54858094E-01  2.74753240E-04  3.61811339E+00
  7.54858094E-01  2.74753240E-04  3.61811339E+00  7.54858094E-01  2.74753240E-04
  3.61811339E+00  7.54858094E-01  2.74753240E-04  3.61811339E+00  7.54858094E-01
  2.74753240E-04 -3.72812861E-01  2.94296375E+00 -4.89424926E-05 -3.72812861E-01
  2.94296375E+00 -4.89424926E-05 -3.72812861E-01  2.94296375E+00 -4.89424926E-05
 -3.72812861E-01  2.94296375E+00 -4.89424926E-05 -3.72812861E-01  2.94296375E+00
 -4.89424926E-05
Density Number of contracted shells        I               84
Density Number of primitive shells         I               84
Density Pure/Cartesian d shells            I                0
Density Pure/Cartesian f shells            I                0
Density Highest angular momentum           I                3
Density Largest degree of contraction      I                1
Density Shell types                        I   N=          84
           0           0           0           0           0          -1
          -2          -1          -2          -1          -2          -3
          -1          -2          -3          -1          -2          -3
           0           0           0           0           0          -1
          -2          -1          -2          -1          -2          -3
          -1          -2          -3          -1          -2          -3
           0           0           0           0           0          -1
          -2          -1          -2          -1          -2          -3
          -1          -2          -3          -1          -2          -3
           0           0          -1          -2          -1          -2
          -1          -2          -1          -2           0           0
          -1          -2          -1          -2          -1          -2
          -1          -2           0           0          -1          -2
          -1          -2          -1          -2          -1          -2
Density Number of primitives per shell     I   N=          84
           1           1           1           1           1           1
           1           1           1           1           1           1
           1           1           1           1           1           1
           1           1           1           1           1           1
           1           1           1           1           1           1
           1           1           1           1           1           1
           1           1           1           1           1           1
           1           1           1           1           1           1
           1           1           1           1           1           1
           1           1           1           1           1           1
           1           1           1           1           1           1
           1           1           1           1           1           1
           1           1           1           1           1           1
           1           1           1           1           1           1
Density Shell to atom map                  I   N=          84
           1           1           1           1           1           1
           1           1           1           1           1           1
           1           1           1           1           1           1
           2           2           2           2           2           2
           2           2           2           2           2           2
           2           2           2           2           2           2
           3           3           3           3           3           3
           3           3           3           3           3           3
           3           3           3           3           3           3
           4           4           4           4           4           4
           4           4           4           4           5           5
           5           5           5           5           5           5
           5           5           6           6           6           6
           6           6           6           6           6           6
Density Primitive exponents                R   N=          84
  1.33300000E+04  2.00000000E+03  4.56000000E+02  1.29420000E+02  4.21200000E+01
  1.68220457E+01  1.68220457E+01  4.73269226E+00  4.73269226E+00  1.06897221E+00
  1.06897221E+00  1.06897221E+00  3.10840122E-01  3.10840122E-01  3.10840122E-01
  8.70684558E-02  8.70684558E-02  8.70684558E-02  1.80920000E+04  2.71400000E+03
  6.18600000E+02  1.75460000E+02  5.71200000E+01  2.35240728E+01  2.35240728E+01
  6.69191931E+00  6.69191931E+00  1.55251192E+00  1.55251192E+00  1.55251192E+00
  4.45796600E-01  4.45796600E-01  4.45796600E-01  1.17237816E-01  1.17237816E-01
  1.17237816E-01  2.34400000E+04  3.51800000E+03  8.01600000E+02  2.27400000E+02
  7.40600000E+01  3.06515252E+01  3.06515252E+01  8.80144306E+00  8.80144306E+00
  2.20889185E+00  2.20889185E+00  2.20889185E+00  5.90645853E-01  5.90645853E-01
  5.90645853E-01  1.47152949E-01  1.47152949E-01  1.47152949E-01  2.60200000E+01
  3.92400000E+00  1.45400000E+00  1.45400000E+00  8.89200000E-01  8.89200000E-01
  2.62312790E-01  2.62312790E-01  5.94800000E-02  5.94800000E-02  2.60200000E+01
  3.92400000E+00  1.45400000E+00  1.45400000E+00  8.89200000E-01  8.89200000E-01
  2.62312790E-01  2.62312790E-01  5.94800000E-02  5.94800000E-02  2.60200000E+01
  3.92400000E+00  1.45400000E+00  1.45400000E+00  8.89200000E-01  8.89200000E-01
  2.62312790E-01  2.62312790E-01  5.94800000E-02  5.94800000E-02
Density Contraction coefficients           R   N=          84
  1.00000000E+00  1.00000000E+00  1.00000000E+00  1.00000000E+00  1.00000000E+00
  1.00000000E+00  1.00000000E+00  1.00000000E+00  1.00000000E+00  1.00000000E+00
  1.00000000E+00  1.00000000E+00  1.00000000E+00  1.00000000E+00  1.00000000E+00
  1.00000000E+00  1.00000000E+00  1.00000000E+00  1.00000000E+00  1.00000000E+00
  1.00000000E+00  1.00000000E+00  1.00000000E+00  1.00000000E+00  1.00000000E+00
  1.00000000E+00  1.00000000E+00  1.00000000E+00  1.00000000E+00  1.00000000E+00
  1.00000000E+00  1.00000000E+00  1.00000000E+00  1.00000000E+00  1.00000000E+00
  1.00000000E+00  1.00000000E+00  1.00000000E+00  1.00000000E+00  1.00000000E+00
  1.00000000E+00  1.00000000E+00  1.00000000E+00  1.00000000E+00  1.00000000E+00
  1.00000000E+00  1.00000000E+00  1.00000000E+00  1.00000000E+00  1.00000000E+00
  1.00000000E+00  1.00000000E+00  1.00000000E+00  1.00000000E+00  1.00000000E+00
  1.00000000E+00  1.00000000E+00  1.00000000E+00  1.00000000E+00  1.00000000E+00
  1.00000000E+00  1.00000000E+00  1.00000000E+00  1.00000000E+00  1.00000000E+00
  1.00000000E+00  1.00000000E+00  1.00000000E+00  1.00000000E+00  1.00000000E+00
  1.00000000E+00  1.00000000E+00  1.00000000E+00  1.00000000E+00  1.00000000E+00
  1.00000000E+00  1.00000000E+00  1.00000000E+00  1.00000000E+00  1.00000000E+00
  1.00000000E+00  1.00000000E+00  1.00000000E+00  1.00000000E+00
Density P(S=P) Contraction coefficients    R   N=          84
  0.00000000E+00  0.00000000E+00  0.00000000E+00  0.00000000E+00  0.00000000E+00
  1.00000000E+00  0.00000000E+00  1.00000000E+00  0.00000000E+00  1.00000000E+00
  0.00000000E+00  0.00000000E+00  1.00000000E+00  0.00000000E+00  0.00000000E+00
  1.00000000E+00  0.00000000E+00  0.00000000E+00  0.00000000E+00  0.00000000E+00
  0.00000000E+00  0.00000000E+00  0.00000000E+00  1.00000000E+00  0.00000000E+00
  1.00000000E+00  0.00000000E+00  1.00000000E+00  0.00000000E+00  0.00000000E+00
  1.00000000E+00  0.00000000E+00  0.00000000E+00  1.00000000E+00  0.00000000E+00
  0.00000000E+00  0.00000000E+00  0.00000000E+00  0.00000000E+00  0.00000000E+00
  0.00000000E+00  1.00000000E+00  0.00000000E+00  1.00000000E+00  0.00000000E+00
  1.00000000E+00  0.00000000E+00  0.00000000E+00  1.00000000E+00  0.00000000E+00
  0.00000000E+00  1.00000000E+00  0.00000000E+00  0.00000000E+00  0.00000000E+00
  0.00000000E+00  1.00000000E+00  0.00000000E+00  1.00000000E+00  0.00000000E+00
  1.00000000E+00  0.00000000E+00  1.00000000E+00  0.00000000E+00  0.00000000E+00
  0.00000000E+00  1.00000000E+00  0.00000000E+00  1.00000000E+00  0.00000000E+00
  1.00000000E+00  0.00000000E+00  1.00000000E+00  0.00000000E+00  0.00000000E+00
  0.00000000E+00  1.00000000E+00  0.00000000E+00  1.00000000E+00  0.00000000E+00
  1.00000000E+00  0.00000000E+00  1.00000000E+00  0.00000000E+00
Density Coordinates of each shell          R   N=         252
 -1.95861881E-01  7.62430693E-01  4.45085781E-05 -1.95861881E-01  7.62430693E-01
  4.45085781E-05 -1.95861881E-01  7.62430693E-01  4.45085781E-05 -1.95861881E-01
  7.62430693E-01  4.45085781E-05 -1.95861881E-01  7.62430693E-01  4.45085781E-05
 -1.95861881E-01  7.62430693E-01  4.45085781E-05 -1.95861881E-01  7.62430693E-01
  4.45085781E-05 -1.95861881E-01  7.62430693E-01  4.45085781E-05 -1.95861881E-01
  7.62430693E-01  4.45085781E-05 -1.95861881E-01  7.62430693E-01  4.45085781E-05
 -1.95861881E-01  7.62430693E-01  4.45085781E-05 -1.95861881E-01  7.62430693E-01
  4.45085781E-05 -1.95861881E-01  7.62430693E-01  4.45085781E-05 -1.95861881E-01
  7.62430693E-01  4.45085781E-05 -1.95861881E-01  7.62430693E-01  4.45085781E-05
 -1.95861881E-01  7.62430693E-01  4.45085781E-05 -1.95861881E-01  7.62430693E-01
  4.45085781E-05 -1.95861881E-01  7.62430693E-01  4.45085781E-05  2.02916492E+00
 -3.15183299E-01  1.54576306E-04  2.02916492E+00 -3.15183299E-01  1.54576306E-04
  2.02916492E+00 -3.15183299E-01  1.54576306E-04  2.02916492E+00 -3.15183299E-01
  1.54576306E-04  2.02916492E+00 -3.15183299E-01  1.54576306E-04  2.02916492E+00
 -3.15183299E-01  1.54576306E-04  2.02916492E+00 -3.15183299E-01  1.54576306E-04
  2.02916492E+00 -3.15183299E-01  1.54576306E-04  2.02916492E+00 -3.15183299E-01
  1.54576306E-04  2.02916492E+00 -3.15183299E-01  1.54576306E-04  2.02916492E+00
 -3.15183299E-01  1.54576306E-04  2.02916492E+00 -3.15183299E-01  1.54576306E-04
  2.02916492E+00 -3.15183299E-01  1.54576306E-04  2.02916492E+00 -3.15183299E-01
  1.54576306E-04  2.02916492E+00 -3.15183299E-01  1.54576306E-04  2.02916492E+00
 -3.15183299E-01  1.54576306E-04  2.02916492E+00 -3.15183299E-01  1.54576306E-04
  2.02916492E+00 -3.15183299E-01  1.54576306E-04 -2.19107656E+00 -5.14427144E-01
 -1.56543824E-04 -2.19107656E+00 -5.14427144E-01 -1.56543824E-04 -2.19107656E+00
 -5.14427144E-01 -1.56543824E-04 -2.19107656E+00 -5.14427144E-01 -1.56543824E-04
 -2.19107656E+00 -5.14427144E-01 -1.56543824E-04 -2.19107656E+00 -5.14427144E-01
 -1.56543824E-04 -2.19107656E+00 -5.14427144E-01 -1.56543824E-04 -2.19107656E+00
 -5.14427144E-01 -1.56543824E-04 -2.19107656E+00 -5.14427144E-01 -1.56543824E-04
 -2.19107656E+00 -5.14427144E-01 -1.56543824E-04 -2.19107656E+00 -5.14427144E-01
 -1.56543824E-04 -2.19107656E+00 -5.14427144E-01 -1.56543824E-04 -2.19107656E+00
 -5.14427144E-01 -1.56543824E-04 -2.19107656E+00 -5.14427144E-01 -1.56543824E-04
 -2.19107656E+00 -5.14427144E-01 -1.56543824E-04 -2.19107656E+00 -5.14427144E-01
 -1.56543824E-04 -2.19107656E+00 -5.14427144E-01 -1.56543824E-04 -2.19107656E+00
 -5.14427144E-01 -1.56543824E-04  2.17650440E+00 -2.25286923E+00  1.41718764E-04
  2.17650440E+00 -2.25286923E+00  1.41718764E-04  2.17650440E+00 -2.25286923E+00
  1.41718764E-04  2.17650440E+00 -2.25286923E+00  1.41718764E-04  2.17650440E+00
 -2.25286923E+00  1.41718764E-04  2.17650440E+00 -2.25286923E+00  1.41718764E-04
  2.17650440E+00 -2.25286923E+00  1.41718764E-04  2.17650440E+00 -2.25286923E+00
  1.41718764E-04  2.17650440E+00 -2.25286923E+00  1.41718764E-04  2.17650440E+00
 -2.25286923E+00  1.41718764E-04  3.61811339E+00  7.54858094E-01  2.74753240E-04
  3.61811339E+00  7.54858094E-01  2.74753240E-04  3.61811339E+00  7.54858094E-01
  2.74753240E-04  3.61811339E+00  7.54858094E-01  2.74753240E-04  3.61811339E+00
  7.54858094E-01  2.74753240E-04  3.61811339E+00  7.54858094E-01  2.74753240E-04
  3.61811339E+00  7.54858094E-01  2.74753240E-04  3.61811339E+00  7.54858094E-01
  2.74753240E-04  3.61811339E+00  7.54858094E-01  2.74753240E-04  3.61811339E+00
  7.54858094E-01  2.74753240E-04 -3.72812861E-01  2.94296375E+00 -4.89424926E-05
 -3.72812861E-01  2.94296375E+00 -4.89424926E-05 -3.72812861E-01  2.94296375E+00
 -4.89424926E-05 -3.72812861E-01  2.94296375E+00 -4.89424926E-05 -3.72812861E-01
  2.94296375E+00 -4.89424926E-05 -3.72812861E-01  2.94296375E+00 -4.89424926E-05
 -3.72812861E-01  2.94296375E+00 -4.89424926E-05 -3.72812861E-01  2.94296375E+00
 -4.89424926E-05 -3.72812861E-01  2.94296375E+00 -4.89424926E-05 -3.72812861E-01
  2.94296375E+00 -4.89424926E-05
Constraint Structure                       R   N=          18
 -2.80446696E-01  7.35880143E-01 -1.51178091E-05  2.03313745E+00 -3.04100398E-01
  1.13383568E-04 -2.26580242E+00 -4.61796155E-01 -1.43619186E-04  2.23366952E+00
 -2.20464521E+00  1.73854804E-04  3.59611482E+00  7.87938319E-01  2.91017824E-04
 -2.52641266E-01  2.82449617E+00 -9.44863066E-06
Num ILSW                                   I              100
ILSW                                       I   N=         100
           0           0           0           0           2           0
           0           0           0           0       20419          -1
           5           0           0           0           0           0
           0           0           1           0           1           0
           1           1           0           0           0           0
           0           0      100000           0          -1           0
           0           0           0           0           0           0
           0           0           0           1           0           0
           0           0           1           0           0           0
           0           0           4          40           0           0
           0           0          40           0           0           0
           0           0           0           0           0           0
           0           0           0           0           0           0
           0           0           0           0           0           0
           0           0           0           0           0           0
           0           0           0           0           0           0
           0           0           0           0
Num RLSW                                   I               40
RLSW                                       R   N=          40
  1.00000000E+00  1.00000000E+00  1.00000000E+00  8.10000000E-01  1.00000000E+00
  0.00000000E+00  3.30000000E-01  1.90000000E-01  0.00000000E+00  4.60000000E-01
  0.00000000E+00  3.30000000E-01  1.90000000E-01  0.00000000E+00  4.60000000E-01
  0.00000000E+00  0.00000000E+00  1.00000000E+00  0.00000000E+00  0.00000000E+00
  0.00000000E+00  0.00000000E+00  1.00000000E+00  0.00000000E+00  0.00000000E+00
  0.00000000E+00  0.00000000E+00  1.00000000E+00  0.00000000E+00  0.00000000E+00
  0.00000000E+00  0.00000000E+00  0.00000000E+00  0.00000000E+00  0.00000000E+00
  0.00000000E+00  0.00000000E+00  0.00000000E+00  1.00000000E+00  1.00000000E+00
MxBond                                     I                3
NBond                                      I   N=           6
           3           3           1           1           1           1
IBond                                      I   N=          18
           2           3           6           1           4           5
           1           0           0           2           0           0
           2           0           0           1           0           0
RBond                                      R   N=          18
  1.41000000E+00  2.00000000E+00  1.00000000E+00  1.41000000E+00  1.00000000E+00
  1.00000000E+00  2.00000000E+00  0.00000000E+00  0.00000000E+00  1.00000000E+00
  0.00000000E+00  0.00000000E+00  1.00000000E+00  0.00000000E+00  0.00000000E+00
  1.00000000E+00  0.00000000E+00  0.00000000E+00
Virial Ratio                               R      2.006915176565536E+00
SCF Energy                                 R     -1.698590378791567E+02
CIS Energy                                 R     -1.695873901668526E+02
Total Energy                               R     -1.695873901668526E+02
Post-SCF wavefunction norm                 R      1.000000000000000E+00
RMS Force                                  R      8.711971141343289E-05
RMS Density                                R      6.293869719216521E-09
External E-field                           R   N=          35
  0.00000000E+00  0.00000000E+00  0.00000000E+00  0.00000000E+00  0.00000000E+00
  0.00000000E+00  0.00000000E+00  0.00000000E+00  0.00000000E+00  0.00000000E+00
  0.00000000E+00  0.00000000E+00  0.00000000E+00  0.00000000E+00  0.00000000E+00
  0.00000000E+00  0.00000000E+00  0.00000000E+00  0.00000000E+00  0.00000000E+00
  0.00000000E+00  0.00000000E+00  0.00000000E+00  0.00000000E+00  0.00000000E+00
  0.00000000E+00  0.00000000E+00  0.00000000E+00  0.00000000E+00  0.00000000E+00
  0.00000000E+00  0.00000000E+00  0.00000000E+00  0.00000000E+00  0.00000000E+00
IOpCl                                      I                0
IROHF                                      I                0
Alpha Orbital Energies                     R   N=          96
 -1.91981737E+01 -1.44454277E+01 -1.03786227E+01 -1.12155137E+00 -1.00464809E+00
 -7.04795062E-01 -6.36343785E-01 -5.62749062E-01 -4.89486549E-01 -4.85900211E-01
 -3.48246011E-01 -3.36771333E-01  1.68364219E-02  3.14415125E-02  4.38625114E-02
  4.82052469E-02  7.74610213E-02  8.17206815E-02  9.48544496E-02  1.27413380E-01
  1.38778441E-01  1.50380132E-01  1.58093359E-01  1.77936031E-01  2.08676564E-01
  2.09277554E-01  2.10569911E-01  2.56840935E-01  2.62432804E-01  2.80709815E-01
  2.93319769E-01  3.52852713E-01  3.60822826E-01  3.68265058E-01  3.94937692E-01
  4.43577674E-01  4.53519785E-01  4.81073855E-01  5.00078419E-01  5.10152460E-01
  5.23786719E-01  5.46008941E-01  5.61754825E-01  5.72232712E-01  5.79210381E-01
  6.02622618E-01  6.60619271E-01  6.89043505E-01  7.21288137E-01  7.50106127E-01
  8.01543469E-01  8.34030522E-01  8.58273935E-01  8.75417225E-01  9.22824699E-01
  1.05059485E+00  1.06672421E+00  1.07154221E+00  1.12926587E+00  1.17782898E+00
  1.23224819E+00  1.27387748E+00  1.29465239E+00  1.37384183E+00  1.42359928E+00
  1.47834196E+00  1.50920963E+00  1.65559836E+00  1.68617658E+00  1.72067641E+00
  1.75881369E+00  1.79560744E+00  1.81252678E+00  1.87194204E+00  1.97446543E+00
  2.00957597E+00  2.03398375E+00  2.06743098E+00  2.14376991E+00  2.17033910E+00
  2.22530968E+00  2.25529757E+00  2.46401949E+00  2.50330217E+00  2.56030035E+00
  2.61965498E+00  2.67641473E+00  2.87729848E+00  3.01946400E+00  3.17499307E+00
  3.27343166E+00  3.40654449E+00  3.45864495E+00  3.46216807E+00  3.71678429E+00
  3.75063305E+00
Alpha MO coefficients                      R   N=        9216
  1.43966763E-04  9.18380647E-04  1.96012336E-02  4.20163767E-03 -7.35227188E-04
 -6.28913278E-04 -1.25682362E-07 -1.16204318E-02 -9.93977780E-03 -1.12021430E-06
 -1.06107953E-03  5.14868425E-04 -8.73481217E-08 -4.53866780E-04  3.78333366E-09
 -7.94536420E-08 -3.91007566E-04 -5.69799987E-04 -2.99015217E-03  6.52692831E-07
  9.28197599E-07  3.22275655E-03  9.20079884E-03  2.53706749E-05  2.46121728E-05
  2.57304206E-03  6.07058753E-03  1.42343709E-04  4.34624733E-06 -9.68770607E-09
  2.35078729E-03 -1.49581783E-03  3.05188532E-07 -2.24594278E-03  7.01513883E-04
 -9.45574019E-08 -4.12589110E-05 -1.34568753E-08  1.04515676E-08 -3.94277590E-04
 -9.44909079E-05  1.33423183E-03 -1.97415925E-07 -1.00441178E-08 -1.51768212E-04
  1.06441696E-03  9.96858194E-01  2.60581480E-02 -2.99722568E-02 -1.47139933E-02
  1.60459818E-03  9.73905335E-04  1.87248351E-07 -7.63425649E-03 -4.46120046E-03
 -9.02214461E-07 -3.30821358E-03 -1.87144507E-03 -3.20513085E-07  4.55335276E-05
  2.81897132E-10  1.61401478E-08  2.40995859E-05  1.37415266E-04  2.84838093E-04
 -1.47655516E-07 -1.43736765E-07 -4.62663694E-04 -1.13936400E-03  9.54502369E-05