 Entering Gaussian System, Link 0=g09
 Input=td8-opt.com
 Output=td8-opt.log
 Initial command:
 /home/diegoa/progs/g09/l1.exe /home/diegoa/g09scratch/Gau-10079.inp -scrdir=/home/diegoa/g09scratch/
 Default is to use a total of   4 processors:
                                4 via shared-memory
                                1 via Linda
 Entering Link 1 = /home/diegoa/progs/g09/l1.exe PID=     10081.
  
 Copyright (c) 1988,1990,1992,1993,1995,1998,2003,2009, Gaussian, Inc.
                  All Rights Reserved.
  
 This is part of the Gaussian(R) 09 program.  It is based on
 the Gaussian(R) 03 system (copyright 2003, Gaussian, Inc.),
 the Gaussian(R) 98 system (copyright 1998, Gaussian, Inc.),
 the Gaussian(R) 94 system (copyright 1995, Gaussian, Inc.),
 the Gaussian 92(TM) system (copyright 1992, Gaussian, Inc.),
 the Gaussian 90(TM) system (copyright 1990, Gaussian, Inc.),
 the Gaussian 88(TM) system (copyright 1988, Gaussian, Inc.),
 the Gaussian 86(TM) system (copyright 1986, Carnegie Mellon
 University), and the Gaussian 82(TM) system (copyright 1983,
 Carnegie Mellon University). Gaussian is a federally registered
 trademark of Gaussian, Inc.
  
 This software contains proprietary and confidential information,
 including trade secrets, belonging to Gaussian, Inc.
  
 This software is provided under written license and may be
 used, copied, transmitted, or stored only in accord with that
 written license.
  
 The following legend is applicable only to US Government
 contracts under FAR:
  
                    RESTRICTED RIGHTS LEGEND
  
 Use, reproduction and disclosure by the US Government is
 subject to restrictions as set forth in subparagraphs (a)
 and (c) of the Commercial Computer Software - Restricted
 Rights clause in FAR 52.227-19.
  
 Gaussian, Inc.
 340 Quinnipiac St., Bldg. 40, Wallingford CT 06492
  
  
 ---------------------------------------------------------------
 Warning -- This program may not be used in any manner that
 competes with the business of Gaussian, Inc. or will provide
 assistance to any competitor of Gaussian, Inc.  The licensee
 of this program is prohibited from giving any competitor of
 Gaussian, Inc. access to this program.  By using this program,
 the user acknowledges that Gaussian, Inc. is engaged in the
 business of creating and licensing software in the field of
 computational chemistry and represents and warrants to the
 licensee that it is not a competitor of Gaussian, Inc. and that
 it will not use this program in any manner prohibited above.
 ---------------------------------------------------------------
  

 Cite this work as:
 Gaussian 09, Revision A.01,
 M. J. Frisch, G. W. Trucks, H. B. Schlegel, G. E. Scuseria, 
 M. A. Robb, J. R. Cheeseman, G. Scalmani, V. Barone, B. Mennucci, 
 G. A. Petersson, H. Nakatsuji, M. Caricato, X. Li, H. P. Hratchian, 
 A. F. Izmaylov, J. Bloino, G. Zheng, J. L. Sonnenberg, M. Hada, 
 M. Ehara, K. Toyota, R. Fukuda, J. Hasegawa, M. Ishida, T. Nakajima, 
 Y. Honda, O. Kitao, H. Nakai, T. Vreven, J. A. Montgomery, Jr., 
 J. E. Peralta, F. Ogliaro, M. Bearpark, J. J. Heyd, E. Brothers, 
 K. N. Kudin, V. N. Staroverov, R. Kobayashi, J. Normand, 
 K. Raghavachari, A. Rendell, J. C. Burant, S. S. Iyengar, J. Tomasi, 
 M. Cossi, N. Rega, J. M. Millam, M. Klene, J. E. Knox, J. B. Cross, 
 V. Bakken, C. Adamo, J. Jaramillo, R. Gomperts, R. E. Stratmann, 
 O. Yazyev, A. J. Austin, R. Cammi, C. Pomelli, J. W. Ochterski, 
 R. L. Martin, K. Morokuma, V. G. Zakrzewski, G. A. Voth, 
 P. Salvador, J. J. Dannenberg, S. Dapprich, A. D. Daniels, 
 O. Farkas, J. B. Foresman, J. V. Ortiz, J. Cioslowski, 
 and D. J. Fox, Gaussian, Inc., Wallingford CT, 2009.
 
 ******************************************
 Gaussian 09:  EM64L-G09RevA.01  8-May-2009
                28-Oct-2019 
 ******************************************
 %chk=td8-opt.chk
 %NProcShared=4
 Will use up to    4 processors via shared memory.
 Default route:  MP2=Direct MaxDisk=1000GB DenFit
 ----------------------------------------------------------------------
 # cam-b3lyp/aug-cc-pvdz opt nosymm td(root=8,nstates=20) SCRF=PCM int(
 grid=ultrafine)
 ----------------------------------------------------------------------
 1/14=-1,18=20,19=15,26=3,38=1/1,3;
 2/9=110,12=2,15=1,17=6,18=5,40=1/2;
 3/5=16,7=10,11=2,16=1,25=1,30=1,70=2201,71=1,72=1,74=-40,75=-5,82=47/1,2,8,3;
 4//1;
 5/5=2,38=5/2;
 8/6=1,10=1,107=8,108=20/1;
 9/8=8,15=2,41=20,42=1/14;
 10/5=4,31=1/2;
 6/7=2,8=2,9=2,10=2/1;
 7/12=6,13=5,14=8,30=1/1,2,3,16;
 1/14=-1,18=20,19=15/3(2);
 2/9=110,15=1/2;
 99//99;
 2/9=110,15=1/2;
 3/5=16,7=10,11=2,16=1,25=1,30=1,70=2205,71=1,74=-40,75=-5,82=47/1,2,8,3;
 4/5=5,16=3/1;
 5/5=2,38=5/2;
 8/6=1,10=1,107=8,108=20/1;
 9/8=8,15=2,41=20,42=1,49=4/14;
 10/5=4,31=1/2;
 7/12=6,13=5,14=8,30=1/1,2,3,16;
 1/14=-1,18=20,19=15/3(-8);
 2/9=110,15=1/2;
 6/7=2,8=2,9=2,10=2/1;
 99//99;
 -----
 Title
 -----
 Symbolic Z-matrix:
 Charge =  0 Multiplicity = 1
 6                    -0.14841   0.38941  -0.00001 
 7                     1.07589  -0.16092   0.00006 
 8                    -1.19901  -0.24437  -0.00008 
 1                     1.18201  -1.16665   0.00009 
 1                     1.90298   0.41696   0.00015 
 1                    -0.13369   1.49466  -0.00001 
 

 GradGradGradGradGradGradGradGradGradGradGradGradGradGradGradGradGradGrad
 Berny optimization.
 Initialization pass.
                           ----------------------------
                           !    Initial Parameters    !
                           ! (Angstroms and Degrees)  !
 --------------------------                            --------------------------
 ! Name  Definition              Value          Derivative Info.                !
 --------------------------------------------------------------------------------
 ! R1    R(1,2)                  1.3423         estimate D2E/DX2                !
 ! R2    R(1,3)                  1.227          estimate D2E/DX2                !
 ! R3    R(1,6)                  1.1053         estimate D2E/DX2                !
 ! R4    R(2,4)                  1.0113         estimate D2E/DX2                !
 ! R5    R(2,5)                  1.009          estimate D2E/DX2                !
 ! A1    A(2,1,3)              124.6949         estimate D2E/DX2                !
 ! A2    A(2,1,6)              113.4417         estimate D2E/DX2                !
 ! A3    A(3,1,6)              121.8634         estimate D2E/DX2                !
 ! A4    A(1,2,4)              120.2276         estimate D2E/DX2                !
 ! A5    A(1,2,5)              120.8539         estimate D2E/DX2                !
 ! A6    A(4,2,5)              118.9185         estimate D2E/DX2                !
 ! D1    D(3,1,2,4)             -0.0023         estimate D2E/DX2                !
 ! D2    D(3,1,2,5)           -179.9974         estimate D2E/DX2                !
 ! D3    D(6,1,2,4)            179.9982         estimate D2E/DX2                !
 ! D4    D(6,1,2,5)              0.0031         estimate D2E/DX2                !
 --------------------------------------------------------------------------------
 Trust Radius=3.00D-01 FncErr=1.00D-07 GrdErr=1.00D-06
 Number of steps in this run=  25 maximum allowed number of steps= 100.
 GradGradGradGradGradGradGradGradGradGradGradGradGradGradGradGradGradGrad

                          Input orientation:                          
 ---------------------------------------------------------------------
 Center     Atomic      Atomic             Coordinates (Angstroms)
 Number     Number       Type             X           Y           Z
 ---------------------------------------------------------------------
      1          6           0       -0.148406    0.389411   -0.000008
      2          7           0        1.075890   -0.160923    0.000060
      3          8           0       -1.199011   -0.244372   -0.000076
      4          1           0        1.182007   -1.166648    0.000092
      5          1           0        1.902982    0.416959    0.000154
      6          1           0       -0.133692    1.494659   -0.000005
 ---------------------------------------------------------------------
                    Distance matrix (angstroms):
                    1          2          3          4          5
     1  C    0.000000
     2  N    1.342300   0.000000
     3  O    1.226969   2.276431   0.000000
     4  H    2.047271   1.011308   2.553398   0.000000
     5  H    2.051573   1.008974   3.171706   1.740005   0.000000
     6  H    1.105346   2.050376   2.039395   2.968774   2.304231
                    6
     6  H    0.000000
 Symmetry turned off by external request.
 Stoichiometry    CH3NO
 Framework group  C1[X(CH3NO)]
 Deg. of freedom    12
 Full point group                 C1      NOp   1
 Rotational constants (GHZ):     73.1415518     11.3903967      9.8555789
 Standard basis: Aug-CC-pVDZ (5D, 7F)
 Integral buffers will be    131072 words long.
 Raffenetti 2 integral format.
 Two-electron integral symmetry is turned off.
    96 basis functions,   162 primitive gaussians,   102 cartesian basis functions
    12 alpha electrons       12 beta electrons
       nuclear repulsion energy        71.1695258840 Hartrees.
 NAtoms=    6 NActive=    6 NUniq=    6 SFac= 7.50D-01 NAtFMM=   80 NAOKFM=F Big=F
 Standard density basis: Auto (5D, 7F)
   327 Density fitting functions
 ------------------------------------------------------------------------------
 Polarizable Continuum Model (PCM)
 =================================
 Model                : PCM.
 Atomic radii         : UFF (Universal Force Field).
 Polarization charges : Total charges.
 Charge compensation  : None.
 Solution method      : Matrix inversion.
 Cavity type          : Scaled VdW (van der Waals Surface) (Alpha=1.100).
 Cavity algorithm     : GePol (No added spheres)
                        Default sphere list used, NSphG=    6.
                        Lebedev-Laikov grids with approx.  5.0 points / Ang**2.
                        Smoothing algorithm: Karplus/York (Gamma=1.0000).
                        Polarization charges: spherical gaussians, with
                                              point-specific exponents (IZeta= 3).
                        Self-potential: point-specific (ISelfS= 7).
                        Self-field    : sphere-specific E.n sum rule (ISelfD= 2).
 1st derivatives      : Analytical E(r).r(x)/FMM algorithm (CHGder, D1EAlg=3).
                        Cavity 1st derivative terms included.
 Solvent              : Water, Eps=  78.355300 Eps(inf)=   1.777849
 ------------------------------------------------------------------------------
 Spheres list:
 ISph  on   Nord    Re0     Alpha      Xe            Ye            Ze
    1   C      1    1.926   1.100     -0.148406      0.389411     -0.000008
    2   N      2    1.830   1.100      1.075890     -0.160923      0.000060
    3   O      3    1.750   1.100     -1.199011     -0.244372     -0.000076
    4   H      4    1.443   1.100      1.182007     -1.166648      0.000092
    5   H      5    1.443   1.100      1.902982      0.416959      0.000154
    6   H      6    1.443   1.100     -0.133692      1.494659     -0.000005
 ------------------------------------------------------------------------------
 One-electron integrals computed using PRISM.
 NBasis=    96 RedAO= T  NBF=    96
 NBsUse=    96 1.00D-06 NBFU=    96
 Harris functional with IExCor=20419 diagonalized for initial guess.
 ExpMin= 2.97D-02 ExpMax= 1.17D+04 ExpMxC= 4.01D+02 IAcc=3 IRadAn=         5 AccDes= 0.00D+00
 HarFok:  IExCor=20419 AccDes= 0.00D+00 IRadAn=         5 IDoV= 1
 ScaDFX=  1.000000  1.000000  1.000000  1.000000
 FoFCou: FMM=F IPFlag=           0 FMFlag=      100000 FMFlg1=           0
         NFxFlg=           0 DoJE=T BraDBF=F KetDBF=T FulRan=T
         Omega=  0.000000  0.000000  1.000000  0.000000  0.000000 ICntrl=     500 IOpCl=  0
         NMat0=    1 NMatS0=    1 NMatT0=    0 NMatD0=    1 NMtDS0=    0 NMtDT0=    0
         I1Cent=           4 NGrid=           0.
 Symmetry not used in FoFCou.
 Requested convergence on RMS density matrix=1.00D-08 within 128 cycles.
 Requested convergence on MAX density matrix=1.00D-06.
 Requested convergence on             energy=1.00D-06.
 No special actions if energy rises.
 FoFJK:  IHMeth= 1 ICntrl=     0 DoSepK=T KAlg= 1 I1Cent= 0 FoldK=F
 FoFJK:  IHMeth= 1 ICntrl=     0 DoSepK=T KAlg= 1 I1Cent= 0 FoldK=F
 FoFJK:  IHMeth= 1 ICntrl=     0 DoSepK=T KAlg= 1 I1Cent= 0 FoldK=F
 FoFJK:  IHMeth= 1 ICntrl=     0 DoSepK=T KAlg= 1 I1Cent= 0 FoldK=F
 FoFJK:  IHMeth= 1 ICntrl=     0 DoSepK=T KAlg= 1 I1Cent= 0 FoldK=F
 FoFJK:  IHMeth= 1 ICntrl=     0 DoSepK=T KAlg= 1 I1Cent= 0 FoldK=F
 FoFJK:  IHMeth= 1 ICntrl=     0 DoSepK=T KAlg= 1 I1Cent= 0 FoldK=F
 FoFJK:  IHMeth= 1 ICntrl=     0 DoSepK=T KAlg= 1 I1Cent= 0 FoldK=F
 FoFJK:  IHMeth= 1 ICntrl=     0 DoSepK=T KAlg= 1 I1Cent= 0 FoldK=F
 FoFJK:  IHMeth= 1 ICntrl=     0 DoSepK=T KAlg= 1 I1Cent= 0 FoldK=F
 FoFJK:  IHMeth= 1 ICntrl=     0 DoSepK=T KAlg= 1 I1Cent= 0 FoldK=F
 Error on total polarization charges =  0.01050
 SCF Done:  E(RCAM-B3LYP) =  -169.864201704     A.U. after   11 cycles
             Convg  =    0.4600D-08             -V/T =  2.0064
 ExpMin= 2.97D-02 ExpMax= 1.17D+04 ExpMxC= 4.01D+02 IAcc=3 IRadAn=         5 AccDes= 0.00D+00
 HarFok:  IExCor=  205 AccDes= 0.00D+00 IRadAn=         5 IDoV=-2
 ScaDFX=  1.000000  1.000000  1.000000  1.000000
 Range of M.O.s used for correlation:     4    96
 NBasis=    96 NAE=    12 NBE=    12 NFC=     3 NFV=     0
 NROrb=     93 NOA=     9 NOB=     9 NVA=    84 NVB=    84

 **** Warning!!: The largest alpha MO coefficient is  0.18832976D+02

 NEqPCM:  Using equilibrium solvation (IEInf=0, Eps=  78.3553, EpsInf=   1.7778)
    80 initial guesses have been made.
 Convergence on wavefunction:    0.000001000000000
 Iteration     1 Dimension    80 NMult    80
 CISAX will form    80 AO SS matrices at one time.
 FoFJK:  IHMeth= 1 ICntrl=     0 DoSepK=T KAlg= 1 I1Cent= 0 FoldK=F
 FoFJK:  IHMeth= 1 ICntrl=     0 DoSepK=T KAlg= 1 I1Cent= 0 FoldK=F
 New state      1 was old state      6
 New state      2 was old state      1
 New state      3 was old state      2
 New state      4 was old state      3
 New state      6 was old state      4
 New state      8 was old state     11
 New state     10 was old state      8
 New state     11 was old state     10
 New state     13 was old state     14
 New state     14 was old state     13
 No map to state     17
 New state     20 was old state     17
 Iteration     2 Dimension   120 NMult   120
 FoFJK:  IHMeth= 1 ICntrl=     0 DoSepK=T KAlg= 1 I1Cent= 0 FoldK=F
 FoFJK:  IHMeth= 1 ICntrl=     0 DoSepK=T KAlg= 1 I1Cent= 0 FoldK=F
 New state      7 was old state      8
 New state      8 was old state      7
 New state     13 was old state     14
 New state     14 was old state     13
 New state     16 was old state     17
 New state     17 was old state     16
 New state     19 was old state     20
 New state     20 was old state     19
 Iteration     3 Dimension   160 NMult   160
 FoFJK:  IHMeth= 1 ICntrl=     0 DoSepK=T KAlg= 1 I1Cent= 0 FoldK=F
 FoFJK:  IHMeth= 1 ICntrl=     0 DoSepK=T KAlg= 1 I1Cent= 0 FoldK=F
 Iteration     4 Dimension   200 NMult   200
 FoFJK:  IHMeth= 1 ICntrl=     0 DoSepK=T KAlg= 1 I1Cent= 0 FoldK=F
 FoFJK:  IHMeth= 1 ICntrl=     0 DoSepK=T KAlg= 1 I1Cent= 0 FoldK=F
 Iteration     5 Dimension   240 NMult   240
 FoFJK:  IHMeth= 1 ICntrl=     0 DoSepK=T KAlg= 1 I1Cent= 0 FoldK=F
 FoFJK:  IHMeth= 1 ICntrl=     0 DoSepK=T KAlg= 1 I1Cent= 0 FoldK=F
 Iteration     6 Dimension   280 NMult   280
 FoFJK:  IHMeth= 1 ICntrl=     0 DoSepK=T KAlg= 1 I1Cent= 0 FoldK=F
 FoFJK:  IHMeth= 1 ICntrl=     0 DoSepK=T KAlg= 1 I1Cent= 0 FoldK=F
 Iteration     7 Dimension   306 NMult   306
 FoFJK:  IHMeth= 1 ICntrl=     0 DoSepK=T KAlg= 1 I1Cent= 0 FoldK=F
 FoFJK:  IHMeth= 1 ICntrl=     0 DoSepK=T KAlg= 1 I1Cent= 0 FoldK=F
 Iteration     8 Dimension   310 NMult   310
 FoFJK:  IHMeth= 1 ICntrl=     0 DoSepK=T KAlg= 1 I1Cent= 0 FoldK=F
 FoFJK:  IHMeth= 1 ICntrl=     0 DoSepK=T KAlg= 1 I1Cent= 0 FoldK=F
 ***********************************************************************
 Excited states from <AA,BB:AA,BB> singles matrix:
 ***********************************************************************
 
 Ground to excited state transition electric dipole moments (Au):
       state          X           Y           Z        Dip. S.      Osc.
         1         0.0000      0.0000      0.0822      0.0068      0.0010
         2         0.0464      0.1473      0.0001      0.0238      0.0041
         3        -0.0001      0.0000      0.2981      0.0889      0.0154
         4         1.3664      0.0327      0.0001      1.8682      0.3332
         5        -0.3274      0.8521      0.0000      0.8333      0.1562
         6         0.0000     -0.0001      0.0624      0.0039      0.0007
         7         0.7165      0.2569     -0.0001      0.5794      0.1134
         8        -0.0001     -0.0001     -0.4373      0.1912      0.0377
         9         0.0000      0.0000      0.1922      0.0369      0.0076
        10        -0.1655     -0.0543      0.0000      0.0303      0.0064
        11         0.1199     -0.1249      0.0000      0.0300      0.0066
        12         0.0000      0.0000      0.1840      0.0338      0.0076
        13        -0.0770     -0.0200     -0.0001      0.0063      0.0014
        14         0.0000      0.0000     -0.2236      0.0500      0.0115
        15         0.1673      0.0592      0.0000      0.0315      0.0077
        16         0.0000      0.0000     -0.0739      0.0055      0.0014
        17         0.0000      0.0000     -0.1805      0.0326      0.0082
        18        -0.0001     -0.0002     -0.1090      0.0119      0.0030
        19        -0.1834     -0.3992     -0.0001      0.1930      0.0497
        20        -0.0001     -0.0002      0.1933      0.0374      0.0096
 Ground to excited state transition velocity dipole moments (Au):
       state          X           Y           Z        Dip. S.      Osc.
         1         0.0000      0.0000     -0.0210      0.0004      0.0014
         2        -0.0100     -0.0389      0.0000      0.0016      0.0042
         3         0.0000      0.0000     -0.0748      0.0056      0.0144
         4        -0.3597     -0.0077      0.0000      0.1295      0.3227
         5         0.0919     -0.2362      0.0000      0.0642      0.1522
         6         0.0000      0.0000     -0.0185      0.0003      0.0008
         7        -0.2085     -0.0741      0.0000      0.0490      0.1112
         8         0.0000      0.0000      0.1255      0.0158      0.0356
         9         0.0000      0.0000     -0.0607      0.0037      0.0080
        10         0.0437      0.0149      0.0000      0.0021      0.0044
        11        -0.0375      0.0398      0.0000      0.0030      0.0060
        12         0.0000      0.0000     -0.0591      0.0035      0.0070
        13         0.0160      0.0060      0.0000      0.0003      0.0006
        14         0.0000      0.0000      0.0774      0.0060      0.0116
        15        -0.0606     -0.0149      0.0000      0.0039      0.0071
        16         0.0000      0.0000      0.0288      0.0008      0.0015
        17         0.0000      0.0000      0.0719      0.0052      0.0092
        18         0.0000      0.0001      0.0307      0.0009      0.0016
        19         0.0672      0.1554      0.0000      0.0287      0.0495
        20         0.0000      0.0001     -0.0730      0.0053      0.0092
 Ground to excited state transition magnetic dipole moments (Au):
       state          X           Y           Z
         1        -0.9740     -0.3873     -0.0001
         2         0.0000      0.0001      0.5412
         3         0.0064      0.5643     -0.0001
         4         0.0000      0.0000      0.2587
         5         0.0000      0.0000     -0.1128
         6         0.0418     -0.0090      0.0000
         7         0.0000      0.0001      0.5025
         8        -0.0404      0.3354     -0.0001
         9        -0.0626      0.1138      0.0000
        10         0.0000      0.0000      0.0845
        11         0.0000     -0.0001     -0.0164
        12         0.1077     -0.2556      0.0000
        13         0.0000     -0.0001      0.1960
        14        -0.0774     -0.5400     -0.0001
        15         0.0000      0.0000     -0.3668
        16        -0.9732      0.8013      0.0000
        17         0.2623     -0.6644      0.0000
        18         0.1768     -0.5239      0.0000
        19        -0.0001      0.0004     -0.0263
        20         0.0035     -0.1046      0.0000
 <0|del|b> * <b|rxdel|0> + <0|del|b> * <b|delr+rdel|0>
 Rotatory Strengths (R) in cgs (10**-40 erg-esu-cm/Gauss)
       state          XX          YY          ZZ    R(velocity)
         1         0.0011      0.0052      0.0017      0.0027
 Total R(velocity) tensor for State=          1
                 1             2             3 
      1   0.110443D-02 -0.115851D-02  0.000000D+00
      2   0.103432D-02  0.523382D-02  0.000000D+00
      3  -0.288462D+02 -0.130520D+02  0.172735D-02
         2        -0.0262     -0.0048      0.0006     -0.0101
 Total R(velocity) tensor for State=          2
                 1             2             3 
      1  -0.262268D-01 -0.186277D-02  0.253178D+02
      2  -0.758332D-02 -0.484289D-02  0.199546D+02
      3   0.424875D+01 -0.109556D+01  0.632867D-03
         3         0.0277      0.0057      0.0007      0.0114
 Total R(velocity) tensor for State=          3
                 1             2             3 
      1   0.277001D-01 -0.566982D-02  0.409280D-05
      2   0.784762D-02  0.574073D-02  0.190879D-05
      3  -0.182200D+01  0.969135D+01  0.681105D-03
         4        -0.0107     -0.0090      0.0046     -0.0050
 Total R(velocity) tensor for State=          4
                 1             2             3 
      1  -0.106549D-01 -0.119266D-01  0.194034D+03
      2   0.367718D-02 -0.903324D-02 -0.619726D+02
      3  -0.598927D+00  0.280613D+02  0.458176D-02
         5        -0.0005      0.0009     -0.0028     -0.0008
 Total R(velocity) tensor for State=          5
                 1             2             3 
      1  -0.548710D-03 -0.589568D-03 -0.224316D+02
      2   0.115585D-02  0.949854D-03  0.298328D+02
      3   0.190214D+02  0.739973D+01 -0.276521D-02
         6        -0.0017     -0.0008      0.0008     -0.0006
 Total R(velocity) tensor for State=          6
                 1             2             3 
      1  -0.171410D-02 -0.718180D-03  0.000000D+00
      2  -0.516912D-02 -0.803579D-03  0.000000D+00
      3  -0.135621D+01  0.415202D+00  0.809637D-03
         7         0.0005      0.0149      0.0101      0.0085
 Total R(velocity) tensor for State=          7
                 1             2             3 
      1   0.538735D-03  0.436639D-01  0.207254D+03
      2  -0.587463D-02  0.148685D-01 -0.760412D+01
      3  -0.620806D+01  0.174641D+02  0.101053D-01
         8        -0.0129     -0.0141      0.0037     -0.0078
 Total R(velocity) tensor for State=          8
                 1             2             3 
      1  -0.128824D-01 -0.378815D-01  0.107358D-04
      2   0.661368D-02 -0.141422D-01  0.000000D+00
      3   0.618290D+01 -0.331765D+02  0.374961D-02
         9         0.0012      0.0000     -0.0007      0.0002
 Total R(velocity) tensor for State=          9
                 1             2             3 
      1   0.118168D-02 -0.139574D-02  0.000000D+00
      2  -0.561123D-03  0.363601D-04  0.000000D+00
      3  -0.380971D+01  0.320862D-03 -0.677637D-03
        10        -0.0001      0.0006     -0.0003      0.0001
 Total R(velocity) tensor for State=         10
                 1             2             3 
      1  -0.741230D-04 -0.703752D-03 -0.104572D+02
      2  -0.247265D-03  0.616596D-03 -0.124592D+01
      3  -0.266487D+01  0.782856D+01 -0.319292D-03
        11        -0.0002     -0.0045     -0.0009     -0.0018
 Total R(velocity) tensor for State=         11
                 1             2             3 
      1  -0.201066D-03 -0.623724D-02 -0.169255D+02
      2  -0.804807D-02 -0.446040D-02  0.871933D+01
      3   0.899208D+00  0.846471D+00 -0.886715D-03
        12         0.0002      0.0048     -0.0002      0.0016
 Total R(velocity) tensor for State=         12
                 1             2             3 
      1   0.171601D-03  0.702666D-02  0.000000D+00
      2   0.780809D-02  0.476047D-02  0.106634D-05
      3   0.638446D+00  0.294072D+01 -0.214292D-03
        13         0.0026      0.0061     -0.0017      0.0023
 Total R(velocity) tensor for State=         13
                 1             2             3 
      1   0.259713D-02  0.408561D-02 -0.275256D+01
      2  -0.358300D-02  0.606983D-02  0.878597D+00
      3   0.841917D+00 -0.225424D+01 -0.172814D-02
        14        -0.0026     -0.0056      0.0025     -0.0019
 Total R(velocity) tensor for State=         14
                 1             2             3 
      1  -0.260672D-02 -0.326675D-02  0.000000D+00
      2   0.296628D-02 -0.564343D-02  0.000000D+00
      3   0.170893D+02  0.352193D+02  0.247310D-02
        15         0.0005     -0.0005     -0.0013     -0.0004
 Total R(velocity) tensor for State=         15
                 1             2             3 
      1   0.498560D-03 -0.266128D-02 -0.157223D+02
      2   0.203963D-03 -0.545157D-03  0.696253D+01
      3  -0.132758D+01  0.538753D+01 -0.130193D-02
        16        -0.0032      0.0013     -0.0005     -0.0008
 Total R(velocity) tensor for State=         16
                 1             2             3 
      1  -0.321190D-02  0.191328D-02  0.000000D+00
      2  -0.360450D-02  0.132653D-02  0.000000D+00
      3   0.169369D+02 -0.190568D+02 -0.458219D-03
        17        -0.0018      0.0014     -0.0032     -0.0012
 Total R(velocity) tensor for State=         17
                 1             2             3 
      1  -0.176278D-02 -0.530958D-03  0.000000D+00
      2  -0.143895D-02  0.140598D-02  0.000000D+00
      3  -0.264182D+02  0.180162D+02 -0.320837D-02
        18        -0.0535      0.0010     -0.0149     -0.0225
 Total R(velocity) tensor for State=         18
                 1             2             3 
      1  -0.535376D-01  0.370267D-01 -0.212725D-04
      2   0.393710D-02  0.993092D-03 -0.879304D-05
      3  -0.761796D+01  0.954170D+01 -0.149371D-01
        19         0.0616     -0.0061      0.0325      0.0293
 Total R(velocity) tensor for State=         19
                 1             2             3 
      1   0.615593D-01 -0.150193D-01 -0.588022D+02
      2   0.211484D-01 -0.605823D-02 -0.156468D+02
      3   0.539487D+02 -0.233285D+02  0.325293D-01
        20        -0.0084      0.0075     -0.0141     -0.0050
 Total R(velocity) tensor for State=         20
                 1             2             3 
      1  -0.836612D-02 -0.857233D-02 -0.163683D-04
      2  -0.260364D-01  0.746043D-02 -0.750953D-05
      3   0.248904D+00 -0.112231D+02 -0.141153D-01
 1/2[<0|r|b>*<b|rxdel|0> + (<0|rxdel|b>*<b|r|0>)*]
 Rotatory Strengths (R) in cgs (10**-40 erg-esu-cm/Gauss)
       state          XX          YY          ZZ     R(length)     R(au)
         1         0.0061     -0.0009      0.0032      0.0028      0.0000
         2         0.0008     -0.0110     -0.0207     -0.0103      0.0000
         3         0.0002      0.0114      0.0229      0.0115      0.0000
         4        -0.0015      0.0002     -0.0141     -0.0051      0.0000
         5         0.0016     -0.0029     -0.0011     -0.0008      0.0000
         6        -0.0003     -0.0006     -0.0008     -0.0006      0.0000
         7         0.0216     -0.0158      0.0206      0.0088      0.0000
         8        -0.0039      0.0178     -0.0379     -0.0080      0.0000
         9        -0.0016      0.0005      0.0016      0.0002      0.0000
        10         0.0006      0.0000     -0.0002      0.0001      0.0000
        11        -0.0017     -0.0046      0.0005     -0.0019      0.0000
        12         0.0029      0.0041     -0.0019      0.0017      0.0000
        13        -0.0015     -0.0021      0.0098      0.0021      0.0000
        14         0.0011      0.0038     -0.0101     -0.0017      0.0000
        15        -0.0012      0.0004     -0.0003     -0.0004      0.0000
        16         0.0041     -0.0042     -0.0024     -0.0009      0.0000
        17        -0.0024     -0.0064      0.0048     -0.0013      0.0000
        18         0.0155     -0.0815     -0.0007     -0.0222      0.0000
        19        -0.0112      0.0993     -0.0012      0.0290      0.0001
        20         0.0003     -0.0176      0.0025     -0.0049      0.0000
  1/2[<0|del|b>*<b|r|0> + (<0|r|b>*<b|del|0>)*] (Au)
       state          X           Y           Z        Dip. S.   Osc.(frdel)
         1         0.0000      0.0000     -0.0017      0.0017      0.0011
         2        -0.0005     -0.0057      0.0000      0.0062      0.0041
         3         0.0000      0.0000     -0.0223      0.0223      0.0149
         4        -0.4915     -0.0003      0.0000      0.4918      0.3279
         5        -0.0301     -0.2012      0.0000      0.2313      0.1542
         6         0.0000      0.0000     -0.0012      0.0012      0.0008
         7        -0.1494     -0.0190      0.0000      0.1684      0.1123
         8         0.0000      0.0000     -0.0549      0.0549      0.0366
         9         0.0000      0.0000     -0.0117      0.0117      0.0078
        10        -0.0072     -0.0008      0.0000      0.0080      0.0054
        11        -0.0045     -0.0050      0.0000      0.0095      0.0063
        12         0.0000      0.0000     -0.0109      0.0109      0.0072
        13        -0.0012     -0.0001      0.0000      0.0013      0.0009
        14         0.0000      0.0000     -0.0173      0.0173      0.0115
        15        -0.0101     -0.0009      0.0000      0.0110      0.0073
        16         0.0000      0.0000     -0.0021      0.0021      0.0014
        17         0.0000      0.0000     -0.0130      0.0130      0.0087
        18         0.0000      0.0000     -0.0033      0.0033      0.0022
        19        -0.0123     -0.0620      0.0000      0.0744      0.0496
        20         0.0000      0.0000     -0.0141      0.0141      0.0094
 Ground to excited state transition densities written to RWF  633

 Excitation energies and oscillator strengths:
 
 Excited state symmetry could not be determined.
 Excited State   1:      Singlet-?Sym    5.7585 eV  215.31 nm  f=0.0010  <S**2>=0.000
      12 -> 16         0.67201
      12 -> 17        -0.19817
 
 Excited state symmetry could not be determined.
 Excited State   2:      Singlet-?Sym    6.9828 eV  177.56 nm  f=0.0041  <S**2>=0.000
      11 -> 16         0.21060
      12 -> 13         0.58280
      12 -> 15         0.24535
      12 -> 18        -0.11639
      12 -> 20        -0.11128
 
 Excited state symmetry could not be determined.
 Excited State   3:      Singlet-?Sym    7.0555 eV  175.73 nm  f=0.0154  <S**2>=0.000
      11 -> 13         0.66495
      11 -> 14         0.10376
      11 -> 19        -0.13325
      11 -> 20        -0.13321
 
 Excited state symmetry could not be determined.
 Excited State   4:      Singlet-?Sym    7.2786 eV  170.34 nm  f=0.3332  <S**2>=0.000
      11 -> 16         0.55414
      11 -> 17        -0.24884
      12 -> 13        -0.12092
      12 -> 14         0.24545
      12 -> 15        -0.13901
      12 -> 18         0.10071
 
 Excited state symmetry could not be determined.
 Excited State   5:      Singlet-?Sym    7.6531 eV  162.01 nm  f=0.1562  <S**2>=0.000
      11 -> 16        -0.16103
      12 -> 14         0.58622
      12 -> 15         0.25123
      12 -> 18        -0.12116
      12 -> 19        -0.13061
      12 -> 21        -0.10057
 
 Excited state symmetry could not be determined.
 Excited State   6:      Singlet-?Sym    7.7885 eV  159.19 nm  f=0.0007  <S**2>=0.000
      11 -> 13        -0.10747
      11 -> 14         0.63831
      11 -> 15         0.18600
      11 -> 21        -0.15284
 
 Excited state symmetry could not be determined.
 Excited State   7:      Singlet-?Sym    7.9863 eV  155.25 nm  f=0.1134  <S**2>=0.000
      11 -> 16         0.13445
      12 -> 13        -0.34178
      12 -> 14        -0.17914
      12 -> 15         0.50236
      12 -> 18        -0.23171
 
 Excited state symmetry could not be determined.
 Excited State   8:      Singlet-?Sym    8.0390 eV  154.23 nm  f=0.0377  <S**2>=0.000
      11 -> 14        -0.17832
      11 -> 15         0.64039
      11 -> 18        -0.16359
      11 -> 23        -0.10793
 This state for optimization and/or second-order correction.
 Copying the excited state density for this state as the 1-particle RhoCI density.
 
 Excited state symmetry could not be determined.
 Excited State   9:      Singlet-?Sym    8.3858 eV  147.85 nm  f=0.0076  <S**2>=0.000
      12 -> 16         0.19331
      12 -> 17         0.66986
 
 Excited state symmetry could not be determined.
 Excited State  10:      Singlet-?Sym    8.6828 eV  142.79 nm  f=0.0064  <S**2>=0.000
      11 -> 16         0.28933
      11 -> 17         0.63523
 
 Excited state symmetry could not be determined.
 Excited State  11:      Singlet-?Sym    9.0330 eV  137.26 nm  f=0.0066  <S**2>=0.000
      12 -> 15         0.29463
      12 -> 18         0.61247
      12 -> 19         0.12520
 
 Excited state symmetry could not be determined.
 Excited State  12:      Singlet-?Sym    9.1128 eV  136.05 nm  f=0.0076  <S**2>=0.000
      11 -> 15         0.13499
      11 -> 18         0.65580
      11 -> 24         0.14675
 
 Excited state symmetry could not be determined.
 Excited State  13:      Singlet-?Sym    9.3222 eV  133.00 nm  f=0.0014  <S**2>=0.000
      12 -> 14         0.14982
      12 -> 18        -0.11067
      12 -> 19         0.64827
      12 -> 21        -0.10073
 
 Excited state symmetry could not be determined.
 Excited State  14:      Singlet-?Sym    9.3827 eV  132.14 nm  f=0.0115  <S**2>=0.000
      11 -> 13         0.11837
      11 -> 19         0.67057
 
 Excited state symmetry could not be determined.
 Excited State  15:      Singlet-?Sym    9.9732 eV  124.32 nm  f=0.0077  <S**2>=0.000
      12 -> 13         0.10389
      12 -> 14        -0.10627
      12 -> 20         0.57762
      12 -> 23         0.32350
      12 -> 24         0.10799
 
 Excited state symmetry could not be determined.
 Excited State  16:      Singlet-?Sym   10.1415 eV  122.25 nm  f=0.0014  <S**2>=0.000
       9 -> 16         0.64493
       9 -> 17        -0.18743
      11 -> 20         0.11274
      11 -> 23         0.12451
 
 Excited state symmetry could not be determined.
 Excited State  17:      Singlet-?Sym   10.2406 eV  121.07 nm  f=0.0082  <S**2>=0.000
       9 -> 16        -0.14596
      11 -> 13         0.14259
      11 -> 20         0.61702
      11 -> 21         0.16317
      11 -> 23         0.14752
 
 Excited state symmetry could not be determined.
 Excited State  18:      Singlet-?Sym   10.4822 eV  118.28 nm  f=0.0030  <S**2>=0.000
       9 -> 16        -0.10686
      11 -> 20        -0.15572
      11 -> 23         0.57145
      11 -> 24         0.24050
      11 -> 26        -0.13237
      12 -> 22         0.12950
 
 Excited state symmetry could not be determined.
 Excited State  19:      Singlet-?Sym   10.5065 eV  118.01 nm  f=0.0497  <S**2>=0.000
      11 -> 22        -0.20874
      12 -> 14         0.10823
      12 -> 20        -0.21045
      12 -> 21         0.39660
      12 -> 23         0.40132
      12 -> 24         0.21772
 
 Excited state symmetry could not be determined.
 Excited State  20:      Singlet-?Sym   10.5326 eV  117.72 nm  f=0.0096  <S**2>=0.000
      11 -> 14        -0.11893
      11 -> 20         0.12862
      11 -> 21        -0.34909
      11 -> 23        -0.10406
      12 -> 22         0.54700
      12 -> 25        -0.12297
 SavETr:  write IOETrn=   770 NScale= 10 NData=  16 NLR=1 LETran=     370.
 FoFJK:  IHMeth= 1 ICntrl=     0 DoSepK=T KAlg= 1 I1Cent= 0 FoldK=F
 FoFJK:  IHMeth= 1 ICntrl=     0 DoSepK=T KAlg= 1 I1Cent= 0 FoldK=F
          IDoAtm=111111
 NEqPCM:  Using equilibrium solvation (IEInf=0, Eps=  78.3553, EpsInf=   1.7778)
          Differentiating once with respect to electric field.
                with respect to dipole field.
          Differentiating once with respect to nuclear coordinates.
          There are     1 degrees of freedom in the 1st order CPHF.  IDoFFX=0.
 FoFJK:  IHMeth= 1 ICntrl=     0 DoSepK=T KAlg= 1 I1Cent= 0 FoldK=F
 LinEq1:  Iter=  0 NonCon=     1 RMS=2.69D-02 Max=2.34D-01
 AX will form     1 AO Fock derivatives at one time.
 FoFJK:  IHMeth= 1 ICntrl=     0 DoSepK=T KAlg= 1 I1Cent= 0 FoldK=F
 LinEq1:  Iter=  1 NonCon=     1 RMS=8.40D-03 Max=1.28D-01
 FoFJK:  IHMeth= 1 ICntrl=     0 DoSepK=T KAlg= 1 I1Cent= 0 FoldK=F
 LinEq1:  Iter=  2 NonCon=     1 RMS=5.18D-03 Max=5.17D-02
 FoFJK:  IHMeth= 1 ICntrl=     0 DoSepK=T KAlg= 1 I1Cent= 0 FoldK=F
 LinEq1:  Iter=  3 NonCon=     1 RMS=2.54D-03 Max=3.66D-02
 FoFJK:  IHMeth= 1 ICntrl=     0 DoSepK=T KAlg= 1 I1Cent= 0 FoldK=F
 LinEq1:  Iter=  4 NonCon=     1 RMS=9.52D-04 Max=1.04D-02
 FoFJK:  IHMeth= 1 ICntrl=     0 DoSepK=T KAlg= 1 I1Cent= 0 FoldK=F
 LinEq1:  Iter=  5 NonCon=     1 RMS=1.18D-04 Max=1.07D-03
 FoFJK:  IHMeth= 1 ICntrl=     0 DoSepK=T KAlg= 1 I1Cent= 0 FoldK=F
 LinEq1:  Iter=  6 NonCon=     1 RMS=2.28D-05 Max=2.12D-04
 FoFJK:  IHMeth= 1 ICntrl=     0 DoSepK=T KAlg= 1 I1Cent= 0 FoldK=F
 LinEq1:  Iter=  7 NonCon=     1 RMS=3.34D-06 Max=2.55D-05
 FoFJK:  IHMeth= 1 ICntrl=     0 DoSepK=T KAlg= 1 I1Cent= 0 FoldK=F
 LinEq1:  Iter=  8 NonCon=     1 RMS=7.03D-07 Max=6.06D-06
 FoFJK:  IHMeth= 1 ICntrl=     0 DoSepK=T KAlg= 1 I1Cent= 0 FoldK=F
 LinEq1:  Iter=  9 NonCon=     1 RMS=1.23D-07 Max=9.05D-07
 FoFJK:  IHMeth= 1 ICntrl=     0 DoSepK=T KAlg= 1 I1Cent= 0 FoldK=F
 LinEq1:  Iter= 10 NonCon=     1 RMS=2.31D-08 Max=1.61D-07
 FoFJK:  IHMeth= 1 ICntrl=     0 DoSepK=T KAlg= 1 I1Cent= 0 FoldK=F
 LinEq1:  Iter= 11 NonCon=     1 RMS=4.32D-09 Max=3.18D-08
 FoFJK:  IHMeth= 1 ICntrl=     0 DoSepK=T KAlg= 1 I1Cent= 0 FoldK=F
 LinEq1:  Iter= 12 NonCon=     1 RMS=8.75D-10 Max=7.71D-09
 FoFJK:  IHMeth= 1 ICntrl=     0 DoSepK=T KAlg= 1 I1Cent= 0 FoldK=F
 LinEq1:  Iter= 13 NonCon=     1 RMS=1.43D-10 Max=1.08D-09
 FoFJK:  IHMeth= 1 ICntrl=     0 DoSepK=T KAlg= 1 I1Cent= 0 FoldK=F
 LinEq1:  Iter= 14 NonCon=     0 RMS=2.34D-11 Max=2.71D-10
 Linear equations converged to 1.000D-10 1.000D-09 after    14 iterations.
 FoFJK:  IHMeth= 1 ICntrl=     0 DoSepK=T KAlg= 1 I1Cent= 0 FoldK=F
 End of Minotr Frequency-dependent properties file   721 does not exist.
 End of Minotr Frequency-dependent properties file   722 does not exist.

 **********************************************************************

            Population analysis using the SCF density.

 **********************************************************************

 Alpha  occ. eigenvalues --  -19.20592 -14.43921 -10.37654  -1.13251  -1.00140
 Alpha  occ. eigenvalues --   -0.70900  -0.63283  -0.56221  -0.49948  -0.49027
 Alpha  occ. eigenvalues --   -0.35108  -0.34314
 Alpha virt. eigenvalues --    0.01671   0.03328   0.04398   0.04944   0.07805
 Alpha virt. eigenvalues --    0.08200   0.09546   0.12744   0.14289   0.14951
 Alpha virt. eigenvalues --    0.15949   0.18128   0.20969   0.21113   0.21475
 Alpha virt. eigenvalues --    0.26157   0.27057   0.27879   0.29166   0.35807
 Alpha virt. eigenvalues --    0.35958   0.36487   0.39837   0.44236   0.45521
 Alpha virt. eigenvalues --    0.48141   0.49435   0.51473   0.54114   0.54574
 Alpha virt. eigenvalues --    0.55022   0.57584   0.58384   0.60579   0.66859
 Alpha virt. eigenvalues --    0.68992   0.72108   0.75272   0.80440   0.83460
 Alpha virt. eigenvalues --    0.86149   0.87232   0.91455   1.05604   1.07186
 Alpha virt. eigenvalues --    1.08786   1.12408   1.18207   1.22635   1.26539
 Alpha virt. eigenvalues --    1.30111   1.34930   1.42877   1.49236   1.49240
 Alpha virt. eigenvalues --    1.66239   1.69918   1.71600   1.76712   1.80636
 Alpha virt. eigenvalues --    1.83629   1.87524   2.00351   2.03408   2.05066
 Alpha virt. eigenvalues --    2.10199   2.14980   2.22047   2.22796   2.28727
 Alpha virt. eigenvalues --    2.46313   2.51524   2.55134   2.66073   2.69134
 Alpha virt. eigenvalues --    2.86876   3.02817   3.17882   3.31104   3.40263
 Alpha virt. eigenvalues --    3.45509   3.46312   3.71927   3.77736
          Condensed to atoms (all electrons):
              1          2          3          4          5          6
     1  C    4.808898   0.335984   0.326708  -0.192686  -0.131091   0.034611
     2  N    0.335984   5.856118  -0.065821   0.390049   0.349243  -0.027194
     3  O    0.326708  -0.065821   8.386466   0.001783  -0.002294  -0.092568
     4  H   -0.192686   0.390049   0.001783   1.048857  -0.216210   0.057068
     5  H   -0.131091   0.349243  -0.002294  -0.216210   1.054479  -0.010156
     6  H    0.034611  -0.027194  -0.092568   0.057068  -0.010156   1.330329
 Mulliken atomic charges:
              1
     1  C    0.817577
     2  N    0.161620
     3  O   -0.554274
     4  H   -0.088860
     5  H   -0.043972
     6  H   -0.292090
 Sum of Mulliken atomic charges =   0.00000
 Mulliken charges with hydrogens summed into heavy atoms:
              1
     1  C    0.525486
     2  N    0.028788
     3  O   -0.554274
 Sum of Mulliken charges with hydrogens summed into heavy atoms =   0.00000
 Electronic spatial extent (au):  <R**2>=            146.9405
 Charge=              0.0000 electrons
 Dipole moment (field-independent basis, Debye):
    X=              5.1238    Y=              1.2632    Z=              0.0005  Tot=              5.2772
 Quadrupole moment (field-independent basis, Debye-Ang):
   XX=            -18.5724   YY=            -15.2274   ZZ=            -19.2154
   XY=             -1.5257   XZ=              0.0002   YZ=             -0.0001
 Traceless Quadrupole moment (field-independent basis, Debye-Ang):
   XX=             -0.9007   YY=              2.4444   ZZ=             -1.5436
   XY=             -1.5257   XZ=              0.0002   YZ=             -0.0001
 Octapole moment (field-independent basis, Debye-Ang**2):
  XXX=             17.6895  YYY=             -0.6427  ZZZ=              0.0000  XYY=              3.9508
  XXY=              1.2891  XXZ=              0.0016  XZZ=             -0.7030  YZZ=              0.0247
  YYZ=              0.0003  XYZ=              0.0001
 Hexadecapole moment (field-independent basis, Debye-Ang**3):
 XXXX=           -115.0901 YYYY=            -33.8700 ZZZZ=            -19.6085 XXXY=              1.9779
 XXXZ=             -0.0015 YYYX=             -4.5769 YYYZ=             -0.0004 ZZZX=             -0.0036
 ZZZY=              0.0000 XXYY=            -24.0874 XXZZ=            -26.3725 YYZZ=            -10.2570
 XXYZ=              0.0002 YYXZ=             -0.0008 ZZXY=             -0.0017
 N-N= 7.116952588400D+01 E-N=-5.404459692202D+02  KE= 1.687833827230D+02
 D1PCM: PCM CHGder 1st derivatives, ID1Alg=3 FixD1E=F DoIter=F DoCFld=F I1PDM=6.
 Calling FoFJK, ICntrl=      5127 FMM=F ISym2X=0 I1Cent= 0 IOpClX= 0 NMat=1 NMatS=1 NMatT=0.
 FoFJK:  IHMeth= 1 ICntrl=  5127 DoSepK=T KAlg= 1 I1Cent= 0 FoldK=F
 -------------------------------------------------------------------
 Center     Atomic                   Forces (Hartrees/Bohr)
 Number     Number              X              Y              Z
 -------------------------------------------------------------------
      1        6           0.010883545    0.048345796    0.000002702
      2        7          -0.019756175   -0.014325915    0.000006515
      3        8          -0.007200165   -0.024765686   -0.000002535
      4        1           0.002628913   -0.011345959   -0.000002924
      5        1           0.013412178    0.009048300   -0.000002490
      6        1           0.000031704   -0.006956536   -0.000001268
 -------------------------------------------------------------------
 Cartesian Forces:  Max     0.048345796 RMS     0.015206508

 GradGradGradGradGradGradGradGradGradGradGradGradGradGradGradGradGradGrad
 Berny optimization.
 Internal  Forces:  Max     0.026912415 RMS     0.011269601
 Search for a local minimum.
 Step number   1 out of a maximum of   25
 All quantities printed in internal units (Hartrees-Bohrs-Radians)
 Mixed Optimization -- RFO/linear search
 Second derivative matrix not updated -- first step.
 The second derivative matrix:
                          R1        R2        R3        R4        R5
           R1           0.56693
           R2           0.00000   0.92361
           R3           0.00000   0.00000   0.33098
           R4           0.00000   0.00000   0.00000   0.45754
           R5           0.00000   0.00000   0.00000   0.00000   0.46145
           A1           0.00000   0.00000   0.00000   0.00000   0.00000
           A2           0.00000   0.00000   0.00000   0.00000   0.00000
           A3           0.00000   0.00000   0.00000   0.00000   0.00000
           A4           0.00000   0.00000   0.00000   0.00000   0.00000
           A5           0.00000   0.00000   0.00000   0.00000   0.00000
           A6           0.00000   0.00000   0.00000   0.00000   0.00000
           D1           0.00000   0.00000   0.00000   0.00000   0.00000
           D2           0.00000   0.00000   0.00000   0.00000   0.00000
           D3           0.00000   0.00000   0.00000   0.00000   0.00000
           D4           0.00000   0.00000   0.00000   0.00000   0.00000
                          A1        A2        A3        A4        A5
           A1           0.25000
           A2           0.00000   0.16000
           A3           0.00000   0.00000   0.16000
           A4           0.00000   0.00000   0.00000   0.16000
           A5           0.00000   0.00000   0.00000   0.00000   0.16000
           A6           0.00000   0.00000   0.00000   0.00000   0.00000
           D1           0.00000   0.00000   0.00000   0.00000   0.00000
           D2           0.00000   0.00000   0.00000   0.00000   0.00000
           D3           0.00000   0.00000   0.00000   0.00000   0.00000
           D4           0.00000   0.00000   0.00000   0.00000   0.00000
                          A6        D1        D2        D3        D4
           A6           0.16000
           D1           0.00000   0.02455
           D2           0.00000   0.00000   0.02455
           D3           0.00000   0.00000   0.00000   0.02455
           D4           0.00000   0.00000   0.00000   0.00000   0.02455
     Eigenvalues ---    0.02455   0.02455   0.02455   0.16000   0.16000
     Eigenvalues ---    0.16000   0.22000   0.33098   0.45754   0.46145
     Eigenvalues ---    0.56693   0.923611000.000001000.000001000.00000
 RFO step:  Lambda=-6.22482552D-03 EMin= 2.45504600D-02
 Linear search not attempted -- first point.
 Iteration  1 RMS(Cart)=  0.05039739 RMS(Int)=  0.00221130
 Iteration  2 RMS(Cart)=  0.00235714 RMS(Int)=  0.00000206
 Iteration  3 RMS(Cart)=  0.00000250 RMS(Int)=  0.00000000
 Iteration  4 RMS(Cart)=  0.00000000 RMS(Int)=  0.00000000
 Variable       Old X    -DE/DX   Delta X   Delta X   Delta X     New X
                                 (Linear)    (Quad)   (Total)
    R1        2.53658   0.00343   0.00000   0.00598   0.00598   2.54256
    R2        2.31863   0.01895   0.00000   0.02038   0.02038   2.33902
    R3        2.08880  -0.00695   0.00000  -0.02061  -0.02061   2.06819
    R4        1.91109   0.01156   0.00000   0.02494   0.02494   1.93603
    R5        1.90668   0.01617   0.00000   0.03458   0.03458   1.94126
    A1        2.17634  -0.02691   0.00000  -0.11896  -0.11896   2.05737
    A2        1.97993   0.01331   0.00000   0.05862   0.05862   2.03855
    A3        2.12692   0.01360   0.00000   0.06034   0.06034   2.18726
    A4        2.09837   0.00162   0.00000   0.00976   0.00976   2.10813
    A5        2.10930  -0.00055   0.00000  -0.00329  -0.00329   2.10601
    A6        2.07552  -0.00108   0.00000  -0.00647  -0.00647   2.06905
    D1       -0.00004   0.00000   0.00000   0.00004   0.00004   0.00000
    D2       -3.14155   0.00000   0.00000  -0.00016  -0.00016   3.14148
    D3        3.14156   0.00000   0.00000   0.00014   0.00014  -3.14148
    D4        0.00005   0.00000   0.00000  -0.00006  -0.00006   0.00000
         Item               Value     Threshold  Converged?
 Maximum Force            0.026912     0.000450     NO 
 RMS     Force            0.011270     0.000300     NO 
 Maximum Displacement     0.098207     0.001800     NO 
 RMS     Displacement     0.051290     0.001200     NO 
 Predicted change in Energy=-3.187334D-03
 GradGradGradGradGradGradGradGradGradGradGradGradGradGradGradGradGradGrad

                          Input orientation:                          
 ---------------------------------------------------------------------
 Center     Atomic      Atomic             Coordinates (Angstroms)
 Number     Number       Type             X           Y           Z
 ---------------------------------------------------------------------
      1          6           0       -0.145311    0.433261    0.000031
      2          7           0        1.062435   -0.159717    0.000114
      3          8           0       -1.147042   -0.293768   -0.000098
      4          1           0        1.145253   -1.180868    0.000070
      5          1           0        1.922171    0.402548    0.000122
      6          1           0       -0.157735    1.527630   -0.000021
 ---------------------------------------------------------------------
                    Distance matrix (angstroms):
                    1          2          3          4          5
     1  C    0.000000
     2  N    1.345464   0.000000
     3  O    1.237755   2.213540   0.000000
     4  H    2.066632   1.024504   2.457959   0.000000
     5  H    2.067710   1.027272   3.147209   1.763748   0.000000
     6  H    1.094439   2.082295   2.072732   3.005617   2.364702
                    6
     6  H    0.000000
 Symmetry turned off by external request.
 Stoichiometry    CH3NO
 Framework group  C1[X(CH3NO)]
 Deg. of freedom    12
 Full point group                 C1      NOp   1
 Rotational constants (GHZ):     64.5148659     11.9999537     10.1179799
 Standard basis: Aug-CC-pVDZ (5D, 7F)
 Integral buffers will be    131072 words long.
 Raffenetti 2 integral format.
 Two-electron integral symmetry is turned off.
    96 basis functions,   162 primitive gaussians,   102 cartesian basis functions
    12 alpha electrons       12 beta electrons
       nuclear repulsion energy        71.2110270000 Hartrees.
 NAtoms=    6 NActive=    6 NUniq=    6 SFac= 7.50D-01 NAtFMM=   80 NAOKFM=F Big=F
 Standard density basis: Auto (5D, 7F)
   327 Density fitting functions
 ------------------------------------------------------------------------------
 Polarizable Continuum Model (PCM)
 =================================
 Model                : PCM.
 Atomic radii         : UFF (Universal Force Field).
 Polarization charges : Total charges.
 Charge compensation  : None.
 Solution method      : Matrix inversion.
 Cavity type          : Scaled VdW (van der Waals Surface) (Alpha=1.100).
 Cavity algorithm     : GePol (No added spheres)
                        Default sphere list used, NSphG=    6.
                        Lebedev-Laikov grids with approx.  5.0 points / Ang**2.
                        Smoothing algorithm: Karplus/York (Gamma=1.0000).
                        Polarization charges: spherical gaussians, with
                                              point-specific exponents (IZeta= 3).
                        Self-potential: point-specific (ISelfS= 7).
                        Self-field    : sphere-specific E.n sum rule (ISelfD= 2).
 1st derivatives      : Analytical E(r).r(x)/FMM algorithm (CHGder, D1EAlg=3).
                        Cavity 1st derivative terms included.
 Solvent              : Water, Eps=  78.355300 Eps(inf)=   1.777849
 ------------------------------------------------------------------------------
 Spheres list:
 ISph  on   Nord    Re0     Alpha      Xe            Ye            Ze
    1   C      1    1.926   1.100     -0.145311      0.433261      0.000031
    2   N      2    1.830   1.100      1.062435     -0.159717      0.000114
    3   O      3    1.750   1.100     -1.147042     -0.293768     -0.000098
    4   H      4    1.443   1.100      1.145253     -1.180868      0.000070
    5   H      5    1.443   1.100      1.922171      0.402548      0.000122
    6   H      6    1.443   1.100     -0.157735      1.527630     -0.000021
 ------------------------------------------------------------------------------
 One-electron integrals computed using PRISM.
 NBasis=    96 RedAO= T  NBF=    96
 NBsUse=    96 1.00D-06 NBFU=    96
 Initial guess read from the read-write file.
 B after Tr=     0.000000    0.000000    0.000000
         Rot=    1.000000    0.000000    0.000000    0.000000 Ang=   0.00 deg.
 Harris functional with IExCor=20419 diagonalized for initial guess.
 ExpMin= 2.97D-02 ExpMax= 1.17D+04 ExpMxC= 4.01D+02 IAcc=3 IRadAn=         5 AccDes= 0.00D+00
 HarFok:  IExCor=20419 AccDes= 0.00D+00 IRadAn=         5 IDoV= 1
 ScaDFX=  1.000000  1.000000  1.000000  1.000000
 FoFCou: FMM=F IPFlag=           0 FMFlag=      100000 FMFlg1=           0
         NFxFlg=           0 DoJE=T BraDBF=F KetDBF=T FulRan=T
         Omega=  0.000000  0.000000  1.000000  0.000000  0.000000 ICntrl=     500 IOpCl=  0
         NMat0=    1 NMatS0=    1 NMatT0=    0 NMatD0=    1 NMtDS0=    0 NMtDT0=    0
         I1Cent=           4 NGrid=           0.
 Symmetry not used in FoFCou.
 Requested convergence on RMS density matrix=1.00D-08 within 128 cycles.
 Requested convergence on MAX density matrix=1.00D-06.
 Requested convergence on             energy=1.00D-06.
 No special actions if energy rises.
 FoFJK:  IHMeth= 1 ICntrl=     0 DoSepK=T KAlg= 1 I1Cent= 0 FoldK=F
 FoFJK:  IHMeth= 1 ICntrl=     0 DoSepK=T KAlg= 1 I1Cent= 0 FoldK=F
 FoFJK:  IHMeth= 1 ICntrl=     0 DoSepK=T KAlg= 1 I1Cent= 0 FoldK=F
 FoFJK:  IHMeth= 1 ICntrl=     0 DoSepK=T KAlg= 1 I1Cent= 0 FoldK=F
 FoFJK:  IHMeth= 1 ICntrl=     0 DoSepK=T KAlg= 1 I1Cent= 0 FoldK=F
 FoFJK:  IHMeth= 1 ICntrl=     0 DoSepK=T KAlg= 1 I1Cent= 0 FoldK=F
 FoFJK:  IHMeth= 1 ICntrl=     0 DoSepK=T KAlg= 1 I1Cent= 0 FoldK=F
 FoFJK:  IHMeth= 1 ICntrl=     0 DoSepK=T KAlg= 1 I1Cent= 0 FoldK=F
 FoFJK:  IHMeth= 1 ICntrl=     0 DoSepK=T KAlg= 1 I1Cent= 0 FoldK=F
 FoFJK:  IHMeth= 1 ICntrl=     0 DoSepK=T KAlg= 1 I1Cent= 0 FoldK=F
 FoFJK:  IHMeth= 1 ICntrl=     0 DoSepK=T KAlg= 1 I1Cent= 0 FoldK=F
 Error on total polarization charges =  0.01065
 SCF Done:  E(RCAM-B3LYP) =  -169.860910000     A.U. after   11 cycles
             Convg  =    0.3149D-08             -V/T =  2.0068
 ExpMin= 2.97D-02 ExpMax= 1.17D+04 ExpMxC= 4.01D+02 IAcc=3 IRadAn=         5 AccDes= 0.00D+00
 HarFok:  IExCor=  205 AccDes= 0.00D+00 IRadAn=         5 IDoV=-2
 ScaDFX=  1.000000  1.000000  1.000000  1.000000
 Range of M.O.s used for correlation:     4    96
 NBasis=    96 NAE=    12 NBE=    12 NFC=     3 NFV=     0
 NROrb=     93 NOA=     9 NOB=     9 NVA=    84 NVB=    84

 **** Warning!!: The largest alpha MO coefficient is  0.18976046D+02

 NEqPCM:  Using equilibrium solvation (IEInf=0, Eps=  78.3553, EpsInf=   1.7778)
 Generating guess from densities on rwf.
 Convergence on wavefunction:    0.000001000000000
 Iteration     1 Dimension    40 NMult    40
 CISAX will form    40 AO SS matrices at one time.
 FoFJK:  IHMeth= 1 ICntrl=     0 DoSepK=T KAlg= 1 I1Cent= 0 FoldK=F
 FoFJK:  IHMeth= 1 ICntrl=     0 DoSepK=T KAlg= 1 I1Cent= 0 FoldK=F
 New state      2 was old state      3
 New state      3 was old state      4
 New state      4 was old state      2
 New state      5 was old state      6
 New state      6 was old state      5
 New state      7 was old state      8
 New state      8 was old state      7
 New state     11 was old state     12
 New state     12 was old state     11
 New state     13 was old state     14
 New state     14 was old state     13
 New state     15 was old state     16
 New state     16 was old state     15
 New state     19 was old state     20
 New state     20 was old state     19
 Iteration     2 Dimension    80 NMult    80
 FoFJK:  IHMeth= 1 ICntrl=     0 DoSepK=T KAlg= 1 I1Cent= 0 FoldK=F
 FoFJK:  IHMeth= 1 ICntrl=     0 DoSepK=T KAlg= 1 I1Cent= 0 FoldK=F
 New state      2 was old state      3
 New state      3 was old state      2
 New state      5 was old state      6
 New state      6 was old state      5
 Iteration     3 Dimension   120 NMult   120
 FoFJK:  IHMeth= 1 ICntrl=     0 DoSepK=T KAlg= 1 I1Cent= 0 FoldK=F
 FoFJK:  IHMeth= 1 ICntrl=     0 DoSepK=T KAlg= 1 I1Cent= 0 FoldK=F
 Iteration     4 Dimension   160 NMult   160
 FoFJK:  IHMeth= 1 ICntrl=     0 DoSepK=T KAlg= 1 I1Cent= 0 FoldK=F
 FoFJK:  IHMeth= 1 ICntrl=     0 DoSepK=T KAlg= 1 I1Cent= 0 FoldK=F
 Iteration     5 Dimension   200 NMult   200
 FoFJK:  IHMeth= 1 ICntrl=     0 DoSepK=T KAlg= 1 I1Cent= 0 FoldK=F
 FoFJK:  IHMeth= 1 ICntrl=     0 DoSepK=T KAlg= 1 I1Cent= 0 FoldK=F
 Iteration     6 Dimension   240 NMult   240
 FoFJK:  IHMeth= 1 ICntrl=     0 DoSepK=T KAlg= 1 I1Cent= 0 FoldK=F
 FoFJK:  IHMeth= 1 ICntrl=     0 DoSepK=T KAlg= 1 I1Cent= 0 FoldK=F
 Iteration     7 Dimension   272 NMult   272
 FoFJK:  IHMeth= 1 ICntrl=     0 DoSepK=T KAlg= 1 I1Cent= 0 FoldK=F
 FoFJK:  IHMeth= 1 ICntrl=     0 DoSepK=T KAlg= 1 I1Cent= 0 FoldK=F
 Iteration     8 Dimension   286 NMult   286
 FoFJK:  IHMeth= 1 ICntrl=     0 DoSepK=T KAlg= 1 I1Cent= 0 FoldK=F
 FoFJK:  IHMeth= 1 ICntrl=     0 DoSepK=T KAlg= 1 I1Cent= 0 FoldK=F
 Iteration     9 Dimension   296 NMult   296
 FoFJK:  IHMeth= 1 ICntrl=     0 DoSepK=T KAlg= 1 I1Cent= 0 FoldK=F
 FoFJK:  IHMeth= 1 ICntrl=     0 DoSepK=T KAlg= 1 I1Cent= 0 FoldK=F
 Iteration    10 Dimension   300 NMult   300
 FoFJK:  IHMeth= 1 ICntrl=     0 DoSepK=T KAlg= 1 I1Cent= 0 FoldK=F
 FoFJK:  IHMeth= 1 ICntrl=     0 DoSepK=T KAlg= 1 I1Cent= 0 FoldK=F
 Iteration    11 Dimension   302 NMult   302
 FoFJK:  IHMeth= 1 ICntrl=     0 DoSepK=T KAlg= 1 I1Cent= 0 FoldK=F
 FoFJK:  IHMeth= 1 ICntrl=     0 DoSepK=T KAlg= 1 I1Cent= 0 FoldK=F
 Iteration    12 Dimension   304 NMult   304
 FoFJK:  IHMeth= 1 ICntrl=     0 DoSepK=T KAlg= 1 I1Cent= 0 FoldK=F
 FoFJK:  IHMeth= 1 ICntrl=     0 DoSepK=T KAlg= 1 I1Cent= 0 FoldK=F
 ***********************************************************************
 Excited states from <AA,BB:AA,BB> singles matrix:
 ***********************************************************************
 
 Ground to excited state transition electric dipole moments (Au):
       state          X           Y           Z        Dip. S.      Osc.
         1         0.0000      0.0000      0.0649      0.0042      0.0006
         2         0.8364      0.1029     -0.0018      0.7101      0.1198
         3         0.0054      0.0007      0.2961      0.0877      0.0148
         4         1.1295     -0.1382      0.0001      1.2949      0.2236
         5        -0.2001      0.7324     -0.0002      0.5764      0.1076
         6        -0.0009      0.0036      0.0473      0.0023      0.0004
         7         0.6052      0.3339     -0.0002      0.4778      0.0931
         8        -0.0002     -0.0001     -0.4317      0.1864      0.0359
         9         0.0001      0.0000      0.1439      0.0207      0.0043
        10        -0.1951     -0.0554      0.0000      0.0411      0.0086
        11        -0.0002      0.0001      0.1805      0.0326      0.0071
        12         0.1899     -0.1119      0.0002      0.0486      0.0107
        13         0.0001      0.0000     -0.2059      0.0424      0.0096
        14        -0.1342     -0.0194     -0.0001      0.0184      0.0042
        15        -0.0001      0.0000     -0.0868      0.0075      0.0018
        16         0.0927      0.0166      0.0001      0.0089      0.0022
        17         0.0000      0.0000     -0.1807      0.0326      0.0081
        18         0.0001      0.0001     -0.1517      0.0230      0.0058
        19         0.0000     -0.0002     -0.0214      0.0005      0.0001
        20        -0.2024     -0.3680      0.0000      0.1763      0.0451
 Ground to excited state transition velocity dipole moments (Au):
       state          X           Y           Z        Dip. S.      Osc.
         1         0.0000      0.0000     -0.0167      0.0003      0.0009
         2        -0.2072     -0.0262      0.0004      0.0436      0.1149
         3        -0.0013     -0.0002     -0.0725      0.0053      0.0138
         4        -0.2897      0.0366      0.0000      0.0853      0.2195
         5         0.0568     -0.2020      0.0001      0.0440      0.1049
         6         0.0003     -0.0010     -0.0142      0.0002      0.0005
         7        -0.1758     -0.0962      0.0000      0.0402      0.0916
         8         0.0001      0.0000      0.1211      0.0147      0.0338
         9         0.0000      0.0000     -0.0456      0.0021      0.0045
        10         0.0518      0.0149      0.0000      0.0029      0.0062
        11         0.0001      0.0000     -0.0569      0.0032      0.0066
        12        -0.0587      0.0351     -0.0001      0.0047      0.0094
        13         0.0000      0.0000      0.0701      0.0049      0.0097
        14         0.0364      0.0040      0.0000      0.0013      0.0026
        15         0.0000      0.0000      0.0324      0.0011      0.0019
        16        -0.0338      0.0016      0.0000      0.0011      0.0021
        17         0.0000      0.0000      0.0711      0.0051      0.0091
        18         0.0000      0.0000      0.0440      0.0019      0.0034
        19         0.0000      0.0001      0.0048      0.0000      0.0000
        20         0.0751      0.1403      0.0000      0.0253      0.0440
 Ground to excited state transition magnetic dipole moments (Au):
       state          X           Y           Z
         1        -0.8876     -0.4609     -0.0001
         2        -0.0002     -0.0036      0.6515
         3         0.0038      0.5527      0.0042
         4         0.0000     -0.0001     -0.0705
         5        -0.0002      0.0001     -0.1554
         6         0.0425     -0.0285     -0.0008
         7        -0.0001      0.0001      0.4240
         8        -0.0458      0.3377     -0.0002
         9        -0.0649      0.1352      0.0000
        10         0.0000      0.0000      0.0781
        11         0.1176     -0.2568      0.0000
        12         0.0001     -0.0002     -0.0094
        13        -0.0713     -0.5649     -0.0002
        14        -0.0001     -0.0004      0.1940
        15        -1.0314      0.8824     -0.0001
        16        -0.0002      0.0004     -0.3538
        17         0.1897     -0.5820     -0.0001
        18         0.2174     -0.5266      0.0000
        19         0.0582     -0.1783      0.0001
        20         0.0000      0.0000      0.0887
 <0|del|b> * <b|rxdel|0> + <0|del|b> * <b|delr+rdel|0>
 Rotatory Strengths (R) in cgs (10**-40 erg-esu-cm/Gauss)
       state          XX          YY          ZZ    R(velocity)
         1        -0.0018     -0.0103     -0.0155     -0.0092
 Total R(velocity) tensor for State=          1
                 1             2             3 
      1  -0.175220D-02  0.656246D-02  0.180255D-05
      2   0.116170D-01 -0.103143D-01  0.138692D-05
      3  -0.217922D+02 -0.126792D+02 -0.154707D-01
         2         0.8270      0.2793      0.0442      0.3835
 Total R(velocity) tensor for State=          2
                 1             2             3 
      1   0.826955D+00 -0.178973D+01  0.284622D+03
      2   0.136402D+00  0.279266D+00  0.813022D+02
      3   0.408479D+00 -0.323418D+01  0.441557D-01
         3        -0.8601     -0.2559      0.0024     -0.3712
 Total R(velocity) tensor for State=          3
                 1             2             3 
      1  -0.860101D+00  0.181635D+01  0.118102D-01
      2  -0.147557D+00 -0.255915D+00  0.332310D-02
      3  -0.132654D+01  0.971569D+01  0.241386D-02
         4        -0.0030     -0.0011     -0.0026     -0.0022
 Total R(velocity) tensor for State=          4
                 1             2             3 
      1  -0.301278D-02 -0.331943D-01 -0.157538D+02
      2   0.858240D-02 -0.114383D-02 -0.116362D+03
      3   0.400231D+01  0.316750D+02 -0.255194D-02
         5        -0.1187     -0.0502      0.0441     -0.0416
 Total R(velocity) tensor for State=          5
                 1             2             3 
      1  -0.118713D+00 -0.458798D-01 -0.340633D+02
      2  -0.193434D+00 -0.502324D-01  0.113893D+02
      3   0.141580D+02  0.398232D+01  0.440808D-01
         6         0.1223      0.0465     -0.0429      0.0419
 Total R(velocity) tensor for State=          6
                 1             2             3 
      1   0.122280D+00  0.445414D-01 -0.868536D-03
      2   0.190975D+00  0.464851D-01  0.244136D-03
      3  -0.972570D+00  0.364419D+00 -0.429354D-01
         7         0.0067      0.0286      0.0095      0.0149
 Total R(velocity) tensor for State=          7
                 1             2             3 
      1   0.670568D-02  0.695026D-01  0.170439D+03
      2  -0.138396D-01  0.286233D-01  0.694633D+01
      3  -0.776995D+01  0.141992D+02  0.945134D-02
         8        -0.0079     -0.0255      0.0075     -0.0086
 Total R(velocity) tensor for State=          8
                 1             2             3 
      1  -0.792094D-02 -0.793208D-01  0.309388D-04
      2   0.137077D-01 -0.254658D-01  0.113318D-05
      3   0.599398D+01 -0.318674D+02  0.746089D-02
         9        -0.0004      0.0006      0.0014      0.0005
 Total R(velocity) tensor for State=          9
                 1             2             3 
      1  -0.354341D-03  0.761690D-02 -0.122671D-05
      2   0.473135D-03  0.582437D-03  0.000000D+00
      3  -0.328343D+01 -0.744491D+00  0.142103D-02
        10         0.0016     -0.0022     -0.0035     -0.0014
 Total R(velocity) tensor for State=         10
                 1             2             3 
      1   0.161770D-02 -0.440305D-02 -0.113211D+02
      2   0.680147D-03 -0.216534D-02 -0.186446D+01
      3  -0.262358D+01  0.913275D+01 -0.351438D-02
        11         0.0080      0.0259      0.0009      0.0116
 Total R(velocity) tensor for State=         11
                 1             2             3 
      1   0.799855D-02  0.437385D-01 -0.112486D-04
      2   0.286561D-01  0.259379D-01  0.226725D-04
      3   0.169789D+01  0.237925D+01  0.937664D-03
        12        -0.0018     -0.0244     -0.0019     -0.0094
 Total R(velocity) tensor for State=         12
                 1             2             3 
      1  -0.184089D-02 -0.331375D-01 -0.197964D+02
      2  -0.330140D-01 -0.244254D-01  0.203229D+02
      3   0.659662D+00  0.110456D+01 -0.194682D-02
        13        -0.0153     -0.0136      0.0068     -0.0074
 Total R(velocity) tensor for State=         13
                 1             2             3 
      1  -0.153034D-01 -0.267306D-01 -0.675565D-05
      2   0.736012D-02 -0.135641D-01  0.393293D-05
      3   0.156201D+02  0.326225D+02  0.675728D-02
        14         0.0067      0.0128     -0.0079      0.0039
 Total R(velocity) tensor for State=         14
                 1             2             3 
      1   0.670639D-02  0.220629D-01 -0.671902D+01
      2  -0.620691D-02  0.128112D-01  0.353287D+01
      3   0.476869D+00 -0.434256D+01 -0.785992D-02
        15        -0.0037     -0.0386     -0.0199     -0.0207
 Total R(velocity) tensor for State=         15
                 1             2             3 
      1  -0.373585D-02 -0.288988D-01  0.163736D-05
      2  -0.419971D-02 -0.385970D-01  0.151241D-05
      3   0.217759D+02 -0.234838D+02 -0.198554D-01
        16         0.0081      0.0203      0.0075      0.0120
 Total R(velocity) tensor for State=         16
                 1             2             3 
      1   0.807013D-02  0.210296D-01 -0.783492D+01
      2  -0.764707D-02  0.203055D-01  0.957375D+01
      3   0.148495D+00  0.308544D+01  0.752267D-02
        17         0.0053     -0.0109      0.0046     -0.0003
 Total R(velocity) tensor for State=         17
                 1             2             3 
      1   0.529447D-02  0.393330D-02  0.000000D+00
      2   0.638618D-02 -0.109054D-01 -0.262145D-05
      3  -0.239340D+02  0.142785D+02  0.457330D-02
        18         0.0191     -0.0080     -0.0032      0.0027
 Total R(velocity) tensor for State=         18
                 1             2             3 
      1   0.191487D-01 -0.360049D-01 -0.517406D-05
      2   0.441659D-04 -0.797531D-02 -0.576889D-05
      3  -0.120862D+02  0.138361D+02 -0.321853D-02
        19        -0.0153      0.0006     -0.0091     -0.0079
 Total R(velocity) tensor for State=         19
                 1             2             3 
      1  -0.152691D-01  0.205965D-02 -0.111381D-04
      2  -0.762086D-02  0.640496D-03  0.000000D+00
      3   0.579391D-01  0.580843D+00 -0.909880D-02
        20        -0.0096     -0.0041     -0.0032     -0.0056
 Total R(velocity) tensor for State=         20
                 1             2             3 
      1  -0.963360D-02 -0.275906D-02 -0.634922D+02
      2  -0.122522D-02 -0.407430D-02 -0.379363D+02
      3   0.592154D+02 -0.317037D+02 -0.320261D-02
 1/2[<0|r|b>*<b|rxdel|0> + (<0|rxdel|b>*<b|r|0>)*]
 Rotatory Strengths (R) in cgs (10**-40 erg-esu-cm/Gauss)
       state          XX          YY          ZZ     R(length)     R(au)
         1        -0.0247     -0.0103      0.0060     -0.0097      0.0000
         2         0.0945      0.2601      0.8247      0.3931      0.0008
         3        -0.0145     -0.2543     -0.8731     -0.3806     -0.0008
         4        -0.0059     -0.0049      0.0043     -0.0022      0.0000
         5        -0.0276     -0.0688     -0.0272     -0.0412     -0.0001
         6         0.0272      0.0720      0.0253      0.0415      0.0001
         7         0.0260     -0.0288      0.0489      0.0154      0.0000
         8        -0.0074      0.0341     -0.0538     -0.0090      0.0000
         9         0.0031     -0.0029      0.0015      0.0006      0.0000
        10        -0.0065      0.0014      0.0006     -0.0015      0.0000
        11         0.0188      0.0158      0.0021      0.0122      0.0000
        12        -0.0163     -0.0148      0.0011     -0.0100      0.0000
        13         0.0061      0.0006     -0.0249     -0.0061      0.0000
        14        -0.0063     -0.0054      0.0204      0.0029      0.0000
        15        -0.0543     -0.0009     -0.0037     -0.0197      0.0000
        16         0.0139     -0.0047      0.0209      0.0101      0.0000
        17         0.0019      0.0184     -0.0174      0.0010      0.0000
        18        -0.0201      0.0326     -0.0052      0.0024      0.0000
        19         0.0009     -0.0249      0.0008     -0.0078      0.0000
        20        -0.0013     -0.0128     -0.0029     -0.0057      0.0000
  1/2[<0|del|b>*<b|r|0> + (<0|r|b>*<b|del|0>)*] (Au)
       state          X           Y           Z        Dip. S.   Osc.(frdel)
         1         0.0000      0.0000     -0.0011      0.0011      0.0007
         2        -0.1733     -0.0027      0.0000      0.1760      0.1173
         3         0.0000      0.0000     -0.0215      0.0215      0.0143
         4        -0.3272     -0.0051      0.0000      0.3323      0.2215
         5        -0.0114     -0.1480      0.0000      0.1593      0.1062
         6         0.0000      0.0000     -0.0007      0.0007      0.0005
         7        -0.1064     -0.0321      0.0000      0.1385      0.0923
         8         0.0000      0.0000     -0.0523      0.0523      0.0348
         9         0.0000      0.0000     -0.0066      0.0066      0.0044
        10        -0.0101     -0.0008      0.0000      0.0109      0.0073
        11         0.0000      0.0000     -0.0103      0.0103      0.0069
        12        -0.0112     -0.0039      0.0000      0.0151      0.0101
        13         0.0000      0.0000     -0.0144      0.0144      0.0096
        14        -0.0049     -0.0001      0.0000      0.0050      0.0033
        15         0.0000      0.0000     -0.0028      0.0028      0.0019
        16        -0.0031      0.0000      0.0000      0.0031      0.0021
        17         0.0000      0.0000     -0.0128      0.0128      0.0086
        18         0.0000      0.0000     -0.0067      0.0067      0.0045
        19         0.0000      0.0000     -0.0001      0.0001      0.0001
        20        -0.0152     -0.0516      0.0000      0.0668      0.0445
 Ground to excited state transition densities written to RWF  633

 Excitation energies and oscillator strengths:
 
 Excited state symmetry could not be determined.
 Excited State   1:      Singlet-?Sym    5.5822 eV  222.11 nm  f=0.0006  <S**2>=0.000
      12 -> 16         0.68075
      12 -> 17        -0.16587
 
 Excited state symmetry could not be determined.
 Excited State   2:      Singlet-?Sym    6.8865 eV  180.04 nm  f=0.1198  <S**2>=0.000
      11 -> 16         0.53016
      11 -> 17        -0.19234
      12 -> 13         0.37775
      12 -> 15         0.11675
      12 -> 19        -0.10274
 
 Excited state symmetry could not be determined.
 Excited State   3:      Singlet-?Sym    6.8965 eV  179.78 nm  f=0.0148  <S**2>=0.000
      11 -> 13         0.66223
      11 -> 14         0.12253
      11 -> 19        -0.13258
      11 -> 20        -0.13167
 
 Excited state symmetry could not be determined.
 Excited State   4:      Singlet-?Sym    7.0472 eV  175.93 nm  f=0.2236  <S**2>=0.000
      11 -> 16         0.34374
      11 -> 17        -0.13413
      12 -> 13        -0.46137
      12 -> 14         0.17370
      12 -> 15        -0.27255
      12 -> 18        -0.16403
 
 Excited state symmetry could not be determined.
 Excited State   5:      Singlet-?Sym    7.6174 eV  162.76 nm  f=0.1076  <S**2>=0.000
      11 -> 16        -0.10623
      12 -> 14         0.63078
      12 -> 15         0.18202
      12 -> 19        -0.14745
      12 -> 21        -0.11349
 
 Excited state symmetry could not be determined.
 Excited State   6:      Singlet-?Sym    7.6264 eV  162.57 nm  f=0.0004  <S**2>=0.000
      11 -> 13        -0.12694
      11 -> 14         0.63104
      11 -> 15         0.19595
      11 -> 21        -0.15456
 
 Excited state symmetry could not be determined.
 Excited State   7:      Singlet-?Sym    7.9551 eV  155.86 nm  f=0.0931  <S**2>=0.000
      11 -> 16         0.10078
      12 -> 13        -0.34074
      12 -> 14        -0.12721
      12 -> 15         0.52495
      12 -> 18         0.24217
 
 Excited state symmetry could not be determined.
 Excited State   8:      Singlet-?Sym    7.8609 eV  157.72 nm  f=0.0359  <S**2>=0.000
      11 -> 14        -0.18614
      11 -> 15         0.63657
      11 -> 18         0.16886
      11 -> 23        -0.10654
 This state for optimization and/or second-order correction.
 Copying the excited state density for this state as the 1-particle RhoCI density.
 
 Excited state symmetry could not be determined.
 Excited State   9:      Singlet-?Sym    8.3831 eV  147.90 nm  f=0.0043  <S**2>=0.000
      12 -> 16         0.16009
      12 -> 17         0.67796
 
 Excited state symmetry could not be determined.
 Excited State  10:      Singlet-?Sym    8.5288 eV  145.37 nm  f=0.0086  <S**2>=0.000
      11 -> 16         0.24882
      11 -> 17         0.65246
 
 Excited state symmetry could not be determined.
 Excited State  11:      Singlet-?Sym    8.9321 eV  138.81 nm  f=0.0071  <S**2>=0.000
      11 -> 14        -0.10002
      11 -> 15         0.13480
      11 -> 18        -0.65281
      11 -> 24         0.15130
 
 Excited state symmetry could not be determined.
 Excited State  12:      Singlet-?Sym    8.9970 eV  137.81 nm  f=0.0107  <S**2>=0.000
      12 -> 15         0.29025
      12 -> 18        -0.60848
      12 -> 19         0.14959
 
 Excited state symmetry could not be determined.
 Excited State  13:      Singlet-?Sym    9.2196 eV  134.48 nm  f=0.0096  <S**2>=0.000
      11 -> 13         0.11497
      11 -> 19         0.67087
 
 Excited state symmetry could not be determined.
 Excited State  14:      Singlet-?Sym    9.2861 eV  133.52 nm  f=0.0042  <S**2>=0.000
      12 -> 14         0.15016
      12 -> 18         0.13391
      12 -> 19         0.64533
 
 Excited state symmetry could not be determined.
 Excited State  15:      Singlet-?Sym    9.9128 eV  125.07 nm  f=0.0018  <S**2>=0.000
       9 -> 16         0.66189
       9 -> 17        -0.15921
      11 -> 23         0.12348
 
 Excited state symmetry could not be determined.
 Excited State  16:      Singlet-?Sym    9.9665 eV  124.40 nm  f=0.0022  <S**2>=0.000
      12 -> 20         0.52509
      12 -> 23         0.39961
      12 -> 24         0.13219
 
 Excited state symmetry could not be determined.
 Excited State  17:      Singlet-?Sym   10.0984 eV  122.78 nm  f=0.0081  <S**2>=0.000
      11 -> 13         0.13783
      11 -> 20         0.59889
      11 -> 21         0.21947
      11 -> 23         0.19029
 
 Excited state symmetry could not be determined.
 Excited State  18:      Singlet-?Sym   10.2673 eV  120.76 nm  f=0.0058  <S**2>=0.000
       9 -> 16        -0.11218
      11 -> 20        -0.16521
      11 -> 23         0.58196
      11 -> 24         0.23234
      11 -> 26         0.13855
 
 Excited state symmetry could not be determined.
 Excited State  19:      Singlet-?Sym   10.3709 eV  119.55 nm  f=0.0001  <S**2>=0.000
      11 -> 14        -0.18800
      11 -> 20         0.24000
      11 -> 21        -0.58081
      11 -> 24         0.16330
 
 Excited state symmetry could not be determined.
 Excited State  20:      Singlet-?Sym   10.4384 eV  118.78 nm  f=0.0451  <S**2>=0.000
      11 -> 22        -0.28955
      12 -> 14         0.11165
      12 -> 20        -0.25489
      12 -> 21         0.40456
      12 -> 23         0.33496
      12 -> 24         0.17182
 SavETr:  write IOETrn=   770 NScale= 10 NData=  16 NLR=1 LETran=     370.
 FoFJK:  IHMeth= 1 ICntrl=     0 DoSepK=T KAlg= 1 I1Cent= 0 FoldK=F
 FoFJK:  IHMeth= 1 ICntrl=     0 DoSepK=T KAlg= 1 I1Cent= 0 FoldK=F
          IDoAtm=111111
 NEqPCM:  Using equilibrium solvation (IEInf=0, Eps=  78.3553, EpsInf=   1.7778)
          Differentiating once with respect to electric field.
                with respect to dipole field.
          Differentiating once with respect to nuclear coordinates.
          There are     1 degrees of freedom in the 1st order CPHF.  IDoFFX=0.
 FoFJK:  IHMeth= 1 ICntrl=     0 DoSepK=T KAlg= 1 I1Cent= 0 FoldK=F
 LinEq1:  Iter=  0 NonCon=     1 RMS=2.74D-02 Max=2.35D-01
 AX will form     1 AO Fock derivatives at one time.
 FoFJK:  IHMeth= 1 ICntrl=     0 DoSepK=T KAlg= 1 I1Cent= 0 FoldK=F
 LinEq1:  Iter=  1 NonCon=     1 RMS=8.80D-03 Max=1.35D-01
 FoFJK:  IHMeth= 1 ICntrl=     0 DoSepK=T KAlg= 1 I1Cent= 0 FoldK=F
 LinEq1:  Iter=  2 NonCon=     1 RMS=5.49D-03 Max=6.16D-02
 FoFJK:  IHMeth= 1 ICntrl=     0 DoSepK=T KAlg= 1 I1Cent= 0 FoldK=F
 LinEq1:  Iter=  3 NonCon=     1 RMS=2.71D-03 Max=3.59D-02
 FoFJK:  IHMeth= 1 ICntrl=     0 DoSepK=T KAlg= 1 I1Cent= 0 FoldK=F
 LinEq1:  Iter=  4 NonCon=     1 RMS=9.88D-04 Max=1.10D-02
 FoFJK:  IHMeth= 1 ICntrl=     0 DoSepK=T KAlg= 1 I1Cent= 0 FoldK=F
 LinEq1:  Iter=  5 NonCon=     1 RMS=1.23D-04 Max=8.59D-04
 FoFJK:  IHMeth= 1 ICntrl=     0 DoSepK=T KAlg= 1 I1Cent= 0 FoldK=F
 LinEq1:  Iter=  6 NonCon=     1 RMS=2.49D-05 Max=2.90D-04
 FoFJK:  IHMeth= 1 ICntrl=     0 DoSepK=T KAlg= 1 I1Cent= 0 FoldK=F
 LinEq1:  Iter=  7 NonCon=     1 RMS=4.07D-06 Max=5.14D-05
 FoFJK:  IHMeth= 1 ICntrl=     0 DoSepK=T KAlg= 1 I1Cent= 0 FoldK=F
 LinEq1:  Iter=  8 NonCon=     1 RMS=8.98D-07 Max=8.60D-06
 FoFJK:  IHMeth= 1 ICntrl=     0 DoSepK=T KAlg= 1 I1Cent= 0 FoldK=F
 LinEq1:  Iter=  9 NonCon=     1 RMS=1.65D-07 Max=1.37D-06
 FoFJK:  IHMeth= 1 ICntrl=     0 DoSepK=T KAlg= 1 I1Cent= 0 FoldK=F
 LinEq1:  Iter= 10 NonCon=     1 RMS=2.79D-08 Max=1.49D-07
[...]
 
 Excited state symmetry could not be determined.
 Excited State  10:      Singlet-?Sym    8.5195 eV  145.53 nm  f=0.0084  <S**2>=0.000
      11 -> 15         0.23719
      11 -> 17         0.65626
 
 Excited state symmetry could not be determined.
 Excited State  11:      Singlet-?Sym    8.9105 eV  139.14 nm  f=0.0084  <S**2>=0.000
      11 -> 14        -0.10375
      11 -> 16         0.13548
      11 -> 18        -0.65169
      11 -> 24         0.15121
 
 Excited state symmetry could not be determined.
 Excited State  12:      Singlet-?Sym    8.9764 eV  138.12 nm  f=0.0113  <S**2>=0.000
      12 -> 16         0.29011
      12 -> 18        -0.60878
      12 -> 19         0.14450
 
 Excited state symmetry could not be determined.
 Excited State  13:      Singlet-?Sym    9.2118 eV  134.59 nm  f=0.0076  <S**2>=0.000
      11 -> 13         0.11453
      11 -> 19         0.67139
 
 Excited state symmetry could not be determined.
 Excited State  14:      Singlet-?Sym    9.2739 eV  133.69 nm  f=0.0037  <S**2>=0.000
      12 -> 14         0.15095
      12 -> 18         0.12790
      12 -> 19         0.64671
 
 Excited state symmetry could not be determined.
 Excited State  15:      Singlet-?Sym    9.8141 eV  126.33 nm  f=0.0012  <S**2>=0.000
       9 -> 15         0.67157
       9 -> 17        -0.15038
 
 Excited state symmetry could not be determined.
 Excited State  16:      Singlet-?Sym    9.9516 eV  124.59 nm  f=0.0017  <S**2>=0.000
      12 -> 20         0.51585
      12 -> 23         0.40745
      12 -> 24         0.13868
      12 -> 26        -0.10423
 
 Excited state symmetry could not be determined.
 Excited State  17:      Singlet-?Sym   10.0884 eV  122.90 nm  f=0.0084  <S**2>=0.000
      11 -> 13         0.13436
      11 -> 20         0.59752
      11 -> 21         0.20141
      11 -> 23         0.22117
 
 Excited state symmetry could not be determined.
 Excited State  18:      Singlet-?Sym   10.2473 eV  120.99 nm  f=0.0043  <S**2>=0.000
      11 -> 20        -0.18284
      11 -> 21        -0.10282
      11 -> 23         0.57521
      11 -> 24         0.23669
      11 -> 26         0.13120
 
 Excited state symmetry could not be determined.
 Excited State  19:      Singlet-?Sym   10.3790 eV  119.46 nm  f=0.0000  <S**2>=0.000
      11 -> 14        -0.18563
      11 -> 20         0.23080
      11 -> 21        -0.58080
      11 -> 24         0.16571
 
 Excited state symmetry could not be determined.
 Excited State  20:      Singlet-?Sym   10.4332 eV  118.84 nm  f=0.0461  <S**2>=0.000
      11 -> 22        -0.27276
      12 -> 14         0.10922
      12 -> 20        -0.27669
      12 -> 21         0.39548
      12 -> 23         0.33941
      12 -> 24         0.17699
 SavETr:  write IOETrn=   770 NScale= 10 NData=  16 NLR=1 LETran=     370.
 FoFJK:  IHMeth= 1 ICntrl=     0 DoSepK=T KAlg= 1 I1Cent= 0 FoldK=F
 FoFJK:  IHMeth= 1 ICntrl=     0 DoSepK=T KAlg= 1 I1Cent= 0 FoldK=F
          IDoAtm=111111
 NEqPCM:  Using equilibrium solvation (IEInf=0, Eps=  78.3553, EpsInf=   1.7778)
          Differentiating once with respect to electric field.
                with respect to dipole field.
          Differentiating once with respect to nuclear coordinates.
          There are     1 degrees of freedom in the 1st order CPHF.  IDoFFX=0.
 FoFJK:  IHMeth= 1 ICntrl=     0 DoSepK=T KAlg= 1 I1Cent= 0 FoldK=F
 LinEq1:  Iter=  0 NonCon=     1 RMS=2.75D-02 Max=2.26D-01
 AX will form     1 AO Fock derivatives at one time.
 FoFJK:  IHMeth= 1 ICntrl=     0 DoSepK=T KAlg= 1 I1Cent= 0 FoldK=F
 LinEq1:  Iter=  1 NonCon=     1 RMS=9.31D-03 Max=1.39D-01
 FoFJK:  IHMeth= 1 ICntrl=     0 DoSepK=T KAlg= 1 I1Cent= 0 FoldK=F
 LinEq1:  Iter=  2 NonCon=     1 RMS=5.92D-03 Max=7.01D-02
 FoFJK:  IHMeth= 1 ICntrl=     0 DoSepK=T KAlg= 1 I1Cent= 0 FoldK=F
 LinEq1:  Iter=  3 NonCon=     1 RMS=2.83D-03 Max=3.44D-02
 FoFJK:  IHMeth= 1 ICntrl=     0 DoSepK=T KAlg= 1 I1Cent= 0 FoldK=F
 LinEq1:  Iter=  4 NonCon=     1 RMS=9.97D-04 Max=1.14D-02
 FoFJK:  IHMeth= 1 ICntrl=     0 DoSepK=T KAlg= 1 I1Cent= 0 FoldK=F
 LinEq1:  Iter=  5 NonCon=     1 RMS=1.26D-04 Max=8.62D-04
 FoFJK:  IHMeth= 1 ICntrl=     0 DoSepK=T KAlg= 1 I1Cent= 0 FoldK=F
 LinEq1:  Iter=  6 NonCon=     1 RMS=2.60D-05 Max=3.01D-04
 FoFJK:  IHMeth= 1 ICntrl=     0 DoSepK=T KAlg= 1 I1Cent= 0 FoldK=F
 LinEq1:  Iter=  7 NonCon=     1 RMS=4.27D-06 Max=5.35D-05
 FoFJK:  IHMeth= 1 ICntrl=     0 DoSepK=T KAlg= 1 I1Cent= 0 FoldK=F
 LinEq1:  Iter=  8 NonCon=     1 RMS=9.49D-07 Max=9.00D-06
 FoFJK:  IHMeth= 1 ICntrl=     0 DoSepK=T KAlg= 1 I1Cent= 0 FoldK=F
 LinEq1:  Iter=  9 NonCon=     1 RMS=1.78D-07 Max=1.49D-06
 FoFJK:  IHMeth= 1 ICntrl=     0 DoSepK=T KAlg= 1 I1Cent= 0 FoldK=F
 LinEq1:  Iter= 10 NonCon=     1 RMS=3.13D-08 Max=1.51D-07
 FoFJK:  IHMeth= 1 ICntrl=     0 DoSepK=T KAlg= 1 I1Cent= 0 FoldK=F
 LinEq1:  Iter= 11 NonCon=     1 RMS=5.62D-09 Max=5.35D-08
 FoFJK:  IHMeth= 1 ICntrl=     0 DoSepK=T KAlg= 1 I1Cent= 0 FoldK=F
 LinEq1:  Iter= 12 NonCon=     1 RMS=1.22D-09 Max=1.88D-08
 FoFJK:  IHMeth= 1 ICntrl=     0 DoSepK=T KAlg= 1 I1Cent= 0 FoldK=F
 LinEq1:  Iter= 13 NonCon=     1 RMS=2.64D-10 Max=5.13D-09
 FoFJK:  IHMeth= 1 ICntrl=     0 DoSepK=T KAlg= 1 I1Cent= 0 FoldK=F
 LinEq1:  Iter= 14 NonCon=     0 RMS=4.16D-11 Max=4.50D-10
 Linear equations converged to 1.000D-10 1.000D-09 after    14 iterations.
 FoFJK:  IHMeth= 1 ICntrl=     0 DoSepK=T KAlg= 1 I1Cent= 0 FoldK=F
 End of Minotr Frequency-dependent properties file   721 does not exist.
 End of Minotr Frequency-dependent properties file   722 does not exist.
 D1PCM: PCM CHGder 1st derivatives, ID1Alg=3 FixD1E=F DoIter=F DoCFld=F I1PDM=6.
 Calling FoFJK, ICntrl=      5127 FMM=F ISym2X=0 I1Cent= 0 IOpClX= 0 NMat=1 NMatS=1 NMatT=0.
 FoFJK:  IHMeth= 1 ICntrl=  5127 DoSepK=T KAlg= 1 I1Cent= 0 FoldK=F
 -------------------------------------------------------------------
 Center     Atomic                   Forces (Hartrees/Bohr)
 Number     Number              X              Y              Z
 -------------------------------------------------------------------
      1        6           0.000580925   -0.000054470    0.000030307
      2        7          -0.000414603   -0.000008403   -0.000010137
      3        8          -0.000141904   -0.000065747   -0.000011852
      4        1           0.000103924   -0.000017557    0.000002924
      5        1          -0.000071792    0.000105839   -0.000002014
      6        1          -0.000056550    0.000040337   -0.000009228
 -------------------------------------------------------------------
 Cartesian Forces:  Max     0.000580925 RMS     0.000178016

 GradGradGradGradGradGradGradGradGradGradGradGradGradGradGradGradGradGrad
 Berny optimization.
 Using GEDIIS/GDIIS optimizer.
 Internal  Forces:  Max     0.000378160 RMS     0.000128731
 Search for a local minimum.
 Step number   5 out of a maximum of   25
 All quantities printed in internal units (Hartrees-Bohrs-Radians)
 Mixed Optimization -- En-DIIS/RFO-DIIS
 Swaping is turned off.
 Update second derivatives using D2CorX and points    1    2    3    4    5
 DE= -3.68D-06 DEPred=-2.86D-06 R= 1.29D+00
 SS=  1.41D+00  RLast= 4.81D-03 DXNew= 7.8279D-01 1.4419D-02
 Trust test= 1.29D+00 RLast= 4.81D-03 DXMaxT set to 4.65D-01
 The second derivative matrix:
                          R1        R2        R3        R4        R5
           R1           0.44326
           R2           0.19218   0.66870
           R3          -0.00247  -0.00446   0.33404
           R4          -0.00904  -0.00687   0.00072   0.46401
           R5           0.00212  -0.01281  -0.00065   0.00257   0.46302
           A1           0.02020   0.04664  -0.01217  -0.00086   0.01379
           A2           0.01358  -0.05431   0.00326   0.01220   0.00308
           A3          -0.02808   0.02298   0.00035   0.00962   0.00858
           A4          -0.01033   0.01712  -0.00303   0.01027   0.01251
           A5          -0.00148   0.00076   0.00265  -0.01007  -0.01106
           A6           0.01181  -0.01788   0.00038  -0.00020  -0.00145
           D1          -0.00191   0.00192   0.00008  -0.00020  -0.00055
           D2          -0.00206   0.00207   0.00015  -0.00023  -0.00050
           D3           0.00115  -0.00115  -0.00005   0.00013   0.00034
           D4           0.00100  -0.00100   0.00002   0.00010   0.00039
                          A1        A2        A3        A4        A5
           A1           0.22640
           A2          -0.01895   0.17686
           A3          -0.01260   0.01921   0.17089
           A4          -0.01733   0.01257   0.01116   0.16913
           A5           0.01795  -0.01011  -0.01212  -0.00859   0.16715
           A6          -0.00061  -0.00247   0.00096  -0.00054   0.00144
           D1           0.00032   0.00041  -0.00078  -0.00064   0.00035
           D2           0.00030   0.00041  -0.00072  -0.00055   0.00028
           D3          -0.00021  -0.00023   0.00048   0.00039  -0.00022
           D4          -0.00023  -0.00023   0.00054   0.00048  -0.00030
                          A6        D1        D2        D3        D4
           A6           0.15910
           D1           0.00028   0.02461
           D2           0.00028   0.00004   0.02457
           D3          -0.00017  -0.00004  -0.00002   0.02457
           D4          -0.00018  -0.00006  -0.00004   0.00004   0.02461
     Eigenvalues ---    0.02451   0.02455   0.02463   0.13408   0.15779
     Eigenvalues ---    0.16020   0.24573   0.33496   0.35035   0.46207
     Eigenvalues ---    0.46721   0.787111000.000001000.000001000.00000
 En-DIIS/RFO-DIIS IScMMF=        0 using points:     5    4    3
 RFO step:  Lambda=-4.99949767D-07.
 DIIS coeffs:      1.59122     -0.72177      0.13056
 Iteration  1 RMS(Cart)=  0.00085230 RMS(Int)=  0.00000054
 Iteration  2 RMS(Cart)=  0.00000056 RMS(Int)=  0.00000014
 Variable       Old X    -DE/DX   Delta X   Delta X   Delta X     New X
                                  (DIIS)     (GDIIS)  (Total)
    R1        2.53515  -0.00038  -0.00098  -0.00025  -0.00123   2.53393
    R2        2.35910   0.00015   0.00033   0.00027   0.00060   2.35970
    R3        2.06309   0.00005   0.00009   0.00009   0.00018   2.06327
    R4        1.93419   0.00003   0.00003   0.00000   0.00003   1.93422
    R5        1.94563  -0.00001  -0.00023   0.00021  -0.00002   1.94561
    A1        2.05082   0.00005   0.00077  -0.00033   0.00044   2.05126
    A2        2.04840   0.00001   0.00035  -0.00004   0.00031   2.04872
    A3        2.18396  -0.00007  -0.00112   0.00037  -0.00075   2.18321
    A4        2.07881   0.00018   0.00064   0.00059   0.00123   2.08004
    A5        2.13088  -0.00020  -0.00097  -0.00052  -0.00149   2.12939
    A6        2.07349   0.00002   0.00033  -0.00007   0.00026   2.07375
    D1       -0.00001  -0.00001   0.00013  -0.00096  -0.00084  -0.00085
    D2        3.14107  -0.00001  -0.00007  -0.00071  -0.00078   3.14029
    D3        3.14157   0.00001  -0.00008   0.00059   0.00051  -3.14110
    D4       -0.00053   0.00001  -0.00027   0.00084   0.00057   0.00004
         Item               Value     Threshold  Converged?
 Maximum Force            0.000378     0.000450     YES
 RMS     Force            0.000129     0.000300     YES
 Maximum Displacement     0.001770     0.001800     YES
 RMS     Displacement     0.000853     0.001200     YES
 Predicted change in Energy=-5.179781D-07
 Optimization completed.
    -- Stationary point found.
                           ----------------------------
                           !   Optimized Parameters   !
                           ! (Angstroms and Degrees)  !
 --------------------------                            --------------------------
 ! Name  Definition              Value          Derivative Info.                !
 --------------------------------------------------------------------------------
 ! R1    R(1,2)                  1.3415         -DE/DX =   -0.0004              !
 ! R2    R(1,3)                  1.2484         -DE/DX =    0.0001              !
 ! R3    R(1,6)                  1.0917         -DE/DX =    0.0                 !
 ! R4    R(2,4)                  1.0235         -DE/DX =    0.0                 !
 ! R5    R(2,5)                  1.0296         -DE/DX =    0.0                 !
 ! A1    A(2,1,3)              117.5032         -DE/DX =    0.0001              !
 ! A2    A(2,1,6)              117.3649         -DE/DX =    0.0                 !
 ! A3    A(3,1,6)              125.1319         -DE/DX =   -0.0001              !
 ! A4    A(1,2,4)              119.1072         -DE/DX =    0.0002              !
 ! A5    A(1,2,5)              122.0904         -DE/DX =   -0.0002              !
 ! A6    A(4,2,5)              118.8024         -DE/DX =    0.0                 !
 ! D1    D(3,1,2,4)             -0.0007         -DE/DX =    0.0                 !
 ! D2    D(3,1,2,5)            179.9702         -DE/DX =    0.0                 !
 ! D3    D(6,1,2,4)           -180.0012         -DE/DX =    0.0                 !
 ! D4    D(6,1,2,5)             -0.0303         -DE/DX =    0.0                 !
 --------------------------------------------------------------------------------
 GradGradGradGradGradGradGradGradGradGradGradGradGradGradGradGradGradGrad

                          Input orientation:                          
 ---------------------------------------------------------------------
 Center     Atomic      Atomic             Coordinates (Angstroms)
 Number     Number       Type             X           Y           Z
 ---------------------------------------------------------------------
      1          6           0       -0.139910    0.436423    0.000018
      2          7           0        1.066485   -0.150396    0.000208
      3          8           0       -1.142685   -0.307149   -0.000216
      4          1           0        1.123047   -1.172361    0.000167
      5          1           0        1.939904    0.394744   -0.000047
      6          1           0       -0.167071    1.527826    0.000088
 ---------------------------------------------------------------------
                    Distance matrix (angstroms):
                    1          2          3          4          5
     1  C    0.000000
     2  N    1.341546   0.000000
     3  O    1.248382   2.214725   0.000000
     4  H    2.045298   1.023528   2.425310   0.000000
     5  H    2.080231   1.029581   3.161488   1.767222   0.000000
     6  H    1.091741   2.082808   2.078210   2.992559   2.392324
                    6
     6  H    0.000000
 Symmetry turned off by external request.
 Stoichiometry    CH3NO
 Framework group  C1[X(CH3NO)]
 Deg. of freedom    12
 Full point group                 C1      NOp   1
 Rotational constants (GHZ):     64.0495956     11.9949199     10.1028953

 **********************************************************************

            Population analysis using the SCF density.

 **********************************************************************

 Alpha  occ. eigenvalues --  -19.20185 -14.44011 -10.37758  -1.12434  -0.99052
 Alpha  occ. eigenvalues --   -0.70985  -0.62787  -0.56163  -0.49467  -0.48564
 Alpha  occ. eigenvalues --   -0.34476  -0.34184
 Alpha virt. eigenvalues --    0.01669   0.03307   0.04213   0.04352   0.07805
 Alpha virt. eigenvalues --    0.08194   0.09574   0.12858   0.14177   0.15024
 Alpha virt. eigenvalues --    0.15677   0.17852   0.20675   0.21042   0.21431
 Alpha virt. eigenvalues --    0.25884   0.27110   0.27787   0.29723   0.35197
 Alpha virt. eigenvalues --    0.35823   0.36251   0.40055   0.43949   0.45145
 Alpha virt. eigenvalues --    0.48363   0.49340   0.51183   0.52766   0.54518
 Alpha virt. eigenvalues --    0.55827   0.57555   0.58488   0.59506   0.66745
 Alpha virt. eigenvalues --    0.68804   0.72190   0.74745   0.80971   0.83680
 Alpha virt. eigenvalues --    0.86560   0.87655   0.91804   1.05100   1.06004
 Alpha virt. eigenvalues --    1.06834   1.12282   1.17199   1.22445   1.25286
 Alpha virt. eigenvalues --    1.30246   1.36721   1.43152   1.48186   1.50609
 Alpha virt. eigenvalues --    1.65410   1.66817   1.70871   1.76247   1.79741
 Alpha virt. eigenvalues --    1.82351   1.86493   1.97899   2.03617   2.04245
 Alpha virt. eigenvalues --    2.09910   2.15089   2.18631   2.26044   2.28183
 Alpha virt. eigenvalues --    2.43801   2.50577   2.54968   2.64065   2.70160
 Alpha virt. eigenvalues --    2.86648   2.99240   3.14933   3.25330   3.40111
 Alpha virt. eigenvalues --    3.45457   3.45706   3.74325   3.76592
          Condensed to atoms (all electrons):
              1          2          3          4          5          6
     1  C    4.789941   0.305396   0.313113  -0.178269  -0.143426   0.054210
     2  N    0.305396   5.974418  -0.096043   0.393067   0.365620  -0.036420
     3  O    0.313113  -0.096043   8.465975  -0.002237   0.002284  -0.087689
     4  H   -0.178269   0.393067  -0.002237   0.998508  -0.198050   0.049485
     5  H   -0.143426   0.365620   0.002284  -0.198050   1.000117   0.000367
     6  H    0.054210  -0.036420  -0.087689   0.049485   0.000367   1.288225
 Mulliken atomic charges:
              1
     1  C    0.859035
     2  N    0.093962
     3  O   -0.595403
     4  H   -0.062504
     5  H   -0.026912
     6  H   -0.268177
 Sum of Mulliken atomic charges =   0.00000
 Mulliken charges with hydrogens summed into heavy atoms:
              1
     1  C    0.590857
     2  N    0.004546
     3  O   -0.595403
 Sum of Mulliken charges with hydrogens summed into heavy atoms =   0.00000
 Electronic spatial extent (au):  <R**2>=            144.5382
 Charge=              0.0000 electrons
 Dipole moment (field-independent basis, Debye):
    X=              5.0671    Y=              1.6425    Z=              0.0002  Tot=              5.3267
 Quadrupole moment (field-independent basis, Debye-Ang):
   XX=            -18.5043   YY=            -14.9206   ZZ=            -19.3002
   XY=             -1.7525   XZ=             -0.0016   YZ=             -0.0005
 Traceless Quadrupole moment (field-independent basis, Debye-Ang):
   XX=             -0.9293   YY=              2.6545   ZZ=             -1.7252
   XY=             -1.7525   XZ=             -0.0016   YZ=             -0.0005
 Octapole moment (field-independent basis, Debye-Ang**2):
  XXX=             16.8416  YYY=              0.4427  ZZZ=             -0.0011  XYY=              3.4454
  XXY=              1.6707  XXZ=             -0.0004  XZZ=             -0.9092  YZZ=              0.2043
  YYZ=              0.0005  XYZ=             -0.0004
 Hexadecapole moment (field-independent basis, Debye-Ang**3):
 XXXX=           -109.8599 YYYY=            -34.7764 ZZZZ=            -19.8147 XXXY=              0.9293
 XXXZ=             -0.0121 YYYX=             -5.8882 YYYZ=             -0.0013 ZZZX=             -0.0101
 ZZZY=             -0.0009 XXYY=            -23.9071 XXZZ=            -25.8147 YYZZ=            -10.5945
 XXYZ=             -0.0010 YYXZ=             -0.0027 ZZXY=             -0.4392
 N-N= 7.109559951505D+01 E-N=-5.403112078269D+02  KE= 1.686949758269D+02
 1\1\GINC-CLODOMIRA\FOpt\RTD-CAM-B3LYP-FC\Aug-CC-pVDZ\C1H3N1O1\DIEGOA\2
 8-Oct-2019\0\\# cam-b3lyp/aug-cc-pvdz opt nosymm td(root=8,nstates=20)
  SCRF=PCM int(grid=ultrafine)\\Title\\0,1\C,-0.1399098997,0.4364226372
 ,0.0000176279\N,1.0664853195,-0.1503964737,0.0002079628\O,-1.142684996
 6,-0.307149413,-0.0002163689\H,1.1230465813,-1.1723608188,0.0001667561
 \H,1.9399035243,0.3947444409,-0.0000474774\H,-0.1670705288,1.527825627
 4,0.0000884994\\Version=EM64L-G09RevA.01\HF=-169.8603999\RMSD=2.522e-0
 9\RMSF=1.780e-04\Dipole=2.5907513,0.1371272,0.0007515\PG=C01 [X(C1H3N1
 O1)]\\@


 MICHAEL FARADAY, ASKED BY A POLITICIAN WHAT GOOD
 HIS ELECTRICAL DISCOVERIES WERE, REPLIED 
 "AT PRESENT I DO NOT KNOW, BUT ONE DAY YOU WILL BE
 ABLE TO TAX THEM."
 Job cpu time:  0 days  1 hours  3 minutes 46.7 seconds.
 File lengths (MBytes):  RWF=     59 Int=      0 D2E=      0 Chk=      8 Scr=      1
 Normal termination of Gaussian 09 at Mon Oct 28 14:02:12 2019.
