 Entering Gaussian System, Link 0=g09
 Input=anthracene.com
 Output=anthracene.log
 Initial command:
 /home/diegoa/progs/g09/l1.exe /home/diegoa/g09scratch/Gau-27496.inp -scrdir=/home/diegoa/g09scratch/
 Default is to use a total of   4 processors:
                                4 via shared-memory
                                1 via Linda
 Entering Link 1 = /home/diegoa/progs/g09/l1.exe PID=     27499.
  
 Copyright (c) 1988,1990,1992,1993,1995,1998,2003,2009, Gaussian, Inc.
                  All Rights Reserved.
  
 This is part of the Gaussian(R) 09 program.  It is based on
 the Gaussian(R) 03 system (copyright 2003, Gaussian, Inc.),
 the Gaussian(R) 98 system (copyright 1998, Gaussian, Inc.),
 the Gaussian(R) 94 system (copyright 1995, Gaussian, Inc.),
 the Gaussian 92(TM) system (copyright 1992, Gaussian, Inc.),
 the Gaussian 90(TM) system (copyright 1990, Gaussian, Inc.),
 the Gaussian 88(TM) system (copyright 1988, Gaussian, Inc.),
 the Gaussian 86(TM) system (copyright 1986, Carnegie Mellon
 University), and the Gaussian 82(TM) system (copyright 1983,
 Carnegie Mellon University). Gaussian is a federally registered
 trademark of Gaussian, Inc.
  
 This software contains proprietary and confidential information,
 including trade secrets, belonging to Gaussian, Inc.
  
 This software is provided under written license and may be
 used, copied, transmitted, or stored only in accord with that
 written license.
  
 The following legend is applicable only to US Government
 contracts under FAR:
  
                    RESTRICTED RIGHTS LEGEND
  
 Use, reproduction and disclosure by the US Government is
 subject to restrictions as set forth in subparagraphs (a)
 and (c) of the Commercial Computer Software - Restricted
 Rights clause in FAR 52.227-19.
  
 Gaussian, Inc.
 340 Quinnipiac St., Bldg. 40, Wallingford CT 06492
  
  
 ---------------------------------------------------------------
 Warning -- This program may not be used in any manner that
 competes with the business of Gaussian, Inc. or will provide
 assistance to any competitor of Gaussian, Inc.  The licensee
 of this program is prohibited from giving any competitor of
 Gaussian, Inc. access to this program.  By using this program,
 the user acknowledges that Gaussian, Inc. is engaged in the
 business of creating and licensing software in the field of
 computational chemistry and represents and warrants to the
 licensee that it is not a competitor of Gaussian, Inc. and that
 it will not use this program in any manner prohibited above.
 ---------------------------------------------------------------
  

 Cite this work as:
 Gaussian 09, Revision A.01,
 M. J. Frisch, G. W. Trucks, H. B. Schlegel, G. E. Scuseria, 
 M. A. Robb, J. R. Cheeseman, G. Scalmani, V. Barone, B. Mennucci, 
 G. A. Petersson, H. Nakatsuji, M. Caricato, X. Li, H. P. Hratchian, 
 A. F. Izmaylov, J. Bloino, G. Zheng, J. L. Sonnenberg, M. Hada, 
 M. Ehara, K. Toyota, R. Fukuda, J. Hasegawa, M. Ishida, T. Nakajima, 
 Y. Honda, O. Kitao, H. Nakai, T. Vreven, J. A. Montgomery, Jr., 
 J. E. Peralta, F. Ogliaro, M. Bearpark, J. J. Heyd, E. Brothers, 
 K. N. Kudin, V. N. Staroverov, R. Kobayashi, J. Normand, 
 K. Raghavachari, A. Rendell, J. C. Burant, S. S. Iyengar, J. Tomasi, 
 M. Cossi, N. Rega, J. M. Millam, M. Klene, J. E. Knox, J. B. Cross, 
 V. Bakken, C. Adamo, J. Jaramillo, R. Gomperts, R. E. Stratmann, 
 O. Yazyev, A. J. Austin, R. Cammi, C. Pomelli, J. W. Ochterski, 
 R. L. Martin, K. Morokuma, V. G. Zakrzewski, G. A. Voth, 
 P. Salvador, J. J. Dannenberg, S. Dapprich, A. D. Daniels, 
 O. Farkas, J. B. Foresman, J. V. Ortiz, J. Cioslowski, 
 and D. J. Fox, Gaussian, Inc., Wallingford CT, 2009.
 
 ******************************************
 Gaussian 09:  EM64L-G09RevA.01  8-May-2009
                26-Sep-2019 
 ******************************************
 %NProcShared=4
 Will use up to    4 processors via shared memory.
 Default route:  MP2=Direct MaxDisk=1000GB DenFit
 ---------------------------------
 # b3lyp/6-31G(d) TD(root=1) Force
 ---------------------------------
 1/10=7,30=1,38=1/1,3;
 2/12=2,17=6,18=5,40=1/2;
 3/5=1,6=6,7=1,11=2,16=1,25=1,30=1,71=1,74=-5,82=47/1,2,8,3;
 4//1;
 5/5=2,38=5/2;
 8/6=1,10=2,107=1/1;
 9/8=1,15=2,42=1/14;
 10/5=4/2;
 6/7=2,8=2,9=2,10=2,18=1/1;
 7/12=6,13=5,14=1,29=1/1,2,3,16;
 1/10=7,30=1/3;
 99//99;
 -----
 Title
 -----
 Symbolic Z-matrix:
 Charge =  0 Multiplicity = 1
 6                     3.66055  -0.71328   0. 
 6                     3.66055   0.71328   0. 
 6                     2.47952   1.40723   0. 
 6                     1.22385   0.72256   0. 
 6                     2.47952  -1.40723   0. 
 6                     1.22385  -0.72256   0. 
 6                     0.        1.40359   0. 
 6                    -1.22386   0.72256   0. 
 6                     0.       -1.40359   0. 
 6                    -1.22386  -0.72256   0. 
 6                    -2.47952   1.40723   0. 
 6                    -3.66055   0.71328   0. 
 6                    -3.66055  -0.71328   0. 
 6                    -2.47952  -1.40723   0. 
 1                     4.60744  -1.24643   0. 
 1                     4.60744   1.24643   0. 
 1                     2.47641   2.49479   0. 
 1                     2.47641  -2.49479   0. 
 1                     0.        2.49196   0. 
 1                     0.       -2.49196   0. 
 1                    -2.47641   2.49479   0. 
 1                    -4.60744   1.24643   0. 
 1                    -4.60744  -1.24643   0. 
 1                    -2.47641  -2.49479   0. 
 

 GradGradGradGradGradGradGradGradGradGradGradGradGradGradGradGradGradGrad
 Berny optimization.
 Initialization pass.
 Trust Radius=3.00D-01 FncErr=1.00D-07 GrdErr=1.00D-07
 Number of steps in this run=   2 maximum allowed number of steps=   2.
 GradGradGradGradGradGradGradGradGradGradGradGradGradGradGradGradGradGrad

                          Input orientation:                          
 ---------------------------------------------------------------------
 Center     Atomic      Atomic             Coordinates (Angstroms)
 Number     Number       Type             X           Y           Z
 ---------------------------------------------------------------------
      1          6           0        3.660546   -0.713278    0.000000
      2          6           0        3.660546    0.713278    0.000000
      3          6           0        2.479518    1.407225    0.000000
      4          6           0        1.223854    0.722557    0.000000
      5          6           0        2.479518   -1.407225    0.000000
      6          6           0        1.223854   -0.722557    0.000000
      7          6           0        0.000000    1.403592    0.000000
      8          6           0       -1.223855    0.722556    0.000000
      9          6           0        0.000000   -1.403592    0.000000
     10          6           0       -1.223855   -0.722556    0.000000
     11          6           0       -2.479517    1.407225    0.000000
     12          6           0       -3.660546    0.713277    0.000000
     13          6           0       -3.660546   -0.713277    0.000000
     14          6           0       -2.479517   -1.407225    0.000000
     15          1           0        4.607435   -1.246428    0.000000
     16          1           0        4.607435    1.246428    0.000000
     17          1           0        2.476408    2.494786    0.000000
     18          1           0        2.476408   -2.494786    0.000000
     19          1           0        0.000000    2.491957    0.000000
     20          1           0        0.000000   -2.491957    0.000000
     21          1           0       -2.476408    2.494785    0.000000
     22          1           0       -4.607435    1.246428    0.000000
     23          1           0       -4.607435   -1.246428    0.000000
     24          1           0       -2.476408   -2.494785    0.000000
 ---------------------------------------------------------------------
                    Distance matrix (angstroms):
                    1          2          3          4          5
     1  C    0.000000
     2  C    1.426556   0.000000
     3  C    2.427212   1.369814   0.000000
     4  C    2.828266   2.436710   1.430197   0.000000
     5  C    1.369814   2.427212   2.814450   2.472380   0.000000
     6  C    2.436710   2.828266   2.472380   1.445114   1.430197
     7  C    4.228562   3.725068   2.479521   1.400581   3.748160
     8  C    5.091070   4.884410   3.766131   2.447709   4.272112
     9  C    3.725068   4.228562   3.748160   2.453228   2.479521
    10  C    4.884410   5.091070   4.272112   2.842469   3.766131
    11  C    6.495915   6.179153   4.959035   3.766129   5.702031
    12  C    7.458783   7.321092   6.179154   4.884409   6.495915
    13  C    7.321092   7.458783   6.495915   5.091069   6.179154
    14  C    6.179153   6.495915   5.702031   4.272111   4.959035
    15  H    1.086668   2.176476   3.401456   3.914783   2.133984
    16  H    2.176476   1.086668   2.133984   3.423896   3.401456
    17  H    3.419628   2.139148   1.087565   2.170181   3.902012
    18  H    2.139148   3.419628   3.902012   3.452562   1.087565
    19  H    4.865504   4.069803   2.706410   2.151417   4.620782
    20  H    4.069803   4.865504   4.620782   3.439610   2.706410
    21  H    6.924873   6.390303   5.073853   4.102771   6.307685
    22  H    8.497056   8.285153   7.088777   5.854773   7.567482
    23  H    8.285153   8.497056   7.567482   6.154741   7.088777
    24  H    6.390303   6.924873   6.307685   4.903389   5.073853
                    6          7          8          9         10
     6  C    0.000000
     7  C    2.453228   0.000000
     8  C    2.842469   1.400582   0.000000
     9  C    1.400581   2.807184   2.453228   0.000000
    10  C    2.447709   2.453228   1.445112   1.400582   0.000000
    11  C    4.272111   2.479520   1.430195   3.748159   2.472378
    12  C    5.091069   3.725068   2.436709   4.228561   2.828264
    13  C    4.884409   4.228561   2.828264   3.725068   2.436709
    14  C    3.766129   3.748159   2.472378   2.479520   1.430195
    15  H    3.423896   5.315173   6.154741   4.610115   5.854775
    16  H    3.914783   4.610115   5.854775   5.315173   6.154741
    17  H    3.452562   2.706160   4.102773   4.618436   4.903390
    18  H    2.170181   4.618436   4.903390   2.706160   4.102773
    19  H    3.439610   1.088365   2.151418   3.895549   3.439610
    20  H    2.151417   3.895549   3.439610   1.088365   2.151418
    21  H    4.903389   2.706159   2.170181   4.618435   3.452560
    22  H    6.154741   4.610115   3.423895   5.315173   3.914781
    23  H    5.854773   5.315173   3.914781   4.610115   3.423895
    24  H    4.102771   4.618435   3.452560   2.706159   2.170181
                   11         12         13         14         15
    11  C    0.000000
    12  C    1.369815   0.000000
    13  C    2.427212   1.426554   0.000000
    14  C    2.814450   2.427212   1.369815   0.000000
    15  H    7.567481   8.497056   8.285153   7.088776   0.000000
    16  H    7.088776   8.285153   8.497056   7.567481   2.492856
    17  H    5.073853   6.390303   6.924873   6.307684   4.305573
    18  H    6.307684   6.924873   6.390303   5.073853   2.469752
    19  H    2.706409   4.069803   4.865503   4.620782   5.933294
    20  H    4.620782   4.865503   4.069803   2.706409   4.772819
    21  H    1.087564   2.139148   3.419626   3.902011   8.011086
    22  H    2.133985   1.086669   2.176475   3.401457   9.546107
    23  H    3.401457   2.176475   1.086669   2.133985   9.214870
    24  H    3.902011   3.419626   2.139148   1.087564   7.192998
                   16         17         18         19         20
    16  H    0.000000
    17  H    2.469752   0.000000
    18  H    4.305573   4.989572   0.000000
    19  H    4.772819   2.476410   5.567783   0.000000
    20  H    5.933294   5.567783   2.476410   4.983914   0.000000
    21  H    7.192998   4.952816   7.030377   2.476410   5.567782
    22  H    9.214870   7.192999   8.011087   4.772819   5.933294
    23  H    9.546107   8.011087   7.192999   5.933294   4.772819
    24  H    8.011086   7.030377   4.952816   5.567782   2.476410
                   21         22         23         24
    21  H    0.000000
    22  H    2.469751   0.000000
    23  H    4.305572   2.492856   0.000000
    24  H    4.989570   4.305572   2.469751   0.000000
 Stoichiometry    C14H10
 Framework group  D2H[C2"(HC.CH),SG(C12H8)]
 Deg. of freedom    12
 Full point group                 D2H     NOp   8
 Largest Abelian subgroup         D2H     NOp   8
 Largest concise Abelian subgroup D2      NOp   4
                         Standard orientation:                         
 ---------------------------------------------------------------------
 Center     Atomic      Atomic             Coordinates (Angstroms)
 Number     Number       Type             X           Y           Z
 ---------------------------------------------------------------------
      1          6           0        0.000000    3.660546    0.713278
      2          6           0        0.000000    3.660546   -0.713278
      3          6           0        0.000000    2.479518   -1.407225
      4          6           0        0.000000    1.223854   -0.722557
      5          6           0        0.000000    2.479518    1.407225
      6          6           0        0.000000    1.223854    0.722557
      7          6           0        0.000000    0.000000   -1.403592
      8          6           0        0.000000   -1.223854   -0.722557
      9          6           0        0.000000    0.000000    1.403592
     10          6           0        0.000000   -1.223854    0.722557
     11          6           0        0.000000   -2.479518   -1.407225
     12          6           0        0.000000   -3.660546   -0.713278
     13          6           0        0.000000   -3.660546    0.713278
     14          6           0        0.000000   -2.479518    1.407225
     15          1           0        0.000000    4.607435    1.246428
     16          1           0        0.000000    4.607435   -1.246428
     17          1           0        0.000000    2.476408   -2.494786
     18          1           0        0.000000    2.476408    2.494786
     19          1           0        0.000000    0.000000   -2.491957
     20          1           0        0.000000    0.000000    2.491957
     21          1           0        0.000000   -2.476408   -2.494786
     22          1           0        0.000000   -4.607435   -1.246428
     23          1           0        0.000000   -4.607435    1.246428
     24          1           0        0.000000   -2.476408    2.494786
 ---------------------------------------------------------------------
 Rotational constants (GHZ):      2.1442829      0.4510375      0.3726523
 Standard basis: 6-31G(d) (6D, 7F)
 There are    47 symmetry adapted basis functions of AG  symmetry.
 There are    13 symmetry adapted basis functions of B1G symmetry.
 There are    15 symmetry adapted basis functions of B2G symmetry.
 There are    40 symmetry adapted basis functions of B3G symmetry.
 There are    13 symmetry adapted basis functions of AU  symmetry.
 There are    47 symmetry adapted basis functions of B1U symmetry.
 There are    40 symmetry adapted basis functions of B2U symmetry.
 There are    15 symmetry adapted basis functions of B3U symmetry.
 Integral buffers will be    131072 words long.
 Raffenetti 2 integral format.
 Two-electron integral symmetry is turned on.
   230 basis functions,   432 primitive gaussians,   230 cartesian basis functions
    47 alpha electrons       47 beta electrons
       nuclear repulsion energy       765.2193579671 Hartrees.
 NAtoms=   24 NActive=   24 NUniq=    7 SFac= 3.00D+00 NAtFMM=   80 NAOKFM=F Big=F
 Standard density basis: Auto (5D, 7F)
   922 Density fitting functions
 There are   922 symmetry adapted density basis functions of A   symmetry.
 One-electron integrals computed using PRISM.
 NBasis=   230 RedAO= T  NBF=    47    13    15    40    13    47    40    15
 NBsUse=   230 1.00D-06 NBFU=    47    13    15    40    13    47    40    15
 Harris functional with IExCor=  402 diagonalized for initial guess.
 ExpMin= 1.61D-01 ExpMax= 3.05D+03 ExpMxC= 4.57D+02 IAcc=1 IRadAn=         1 AccDes= 0.00D+00
 HarFok:  IExCor=  402 AccDes= 0.00D+00 IRadAn=         1 IDoV= 1
 ScaDFX=  1.000000  1.000000  1.000000  1.000000
 FoFCou: FMM=F IPFlag=           0 FMFlag=      100000 FMFlg1=           0
         NFxFlg=           0 DoJE=T BraDBF=F KetDBF=T FulRan=T
         Omega=  0.000000  0.000000  1.000000  0.000000  0.000000 ICntrl=     500 IOpCl=  0
         NMat0=    1 NMatS0=    1 NMatT0=    0 NMatD0=    1 NMtDS0=    0 NMtDT0=    0
         I1Cent=           4 NGrid=           0.
 Petite list used in FoFCou.
 Initial guess orbital symmetries:
       Occupied  (B2U) (AG) (B3G) (B1U) (B2U) (AG) (B1U) (B3G)
                 (B1U) (AG) (B2U) (AG) (B3G) (B1U) (AG) (B2U) (AG)
                 (B1U) (B3G) (B2U) (B1U) (AG) (B3G) (AG) (B2U)
                 (B1U) (B2U) (AG) (AG) (B3G) (B2U) (B1U) (B2U)
                 (B3G) (B1U) (AG) (B1U) (B3U) (B3G) (B2U) (B1G)
                 (AG) (B3U) (B2G) (AU) (B1G) (B2G)
       Virtual   (B3U) (AU) (B1G) (B3U) (B2G) (AU) (AG) (B2U) (B1U)
                 (AG) (B2G) (B3G) (B2U) (B3G) (AG) (B1U) (AG) (B1U)
                 (B3G) (B1U) (B1U) (B3G) (B2U) (B2U) (AG) (B2U)
                 (AG) (B1U) (B3G) (B2U) (B3G) (AG) (B3G) (B3U)
                 (B1U) (B1G) (B1U) (B2G) (B2U) (AG) (B3U) (AG)
                 (B2U) (B3G) (B1U) (AU) (AG) (B2U) (B1U) (B3G)
                 (AG) (B1G) (B3U) (B2G) (AU) (B3U) (B1G) (B2G)
                 (B1U) (B3G) (B1U) (AG) (B2U) (B3G) (AU) (B1U)
                 (AG) (B2G) (B2U) (AG) (B3G) (B1U) (B2U) (AG) (B1U)
                 (B3G) (B2U) (AG) (B3G) (B2U) (B1U) (AG) (B1U)
                 (B2U) (B3G) (B1U) (B1G) (B3U) (B1G) (B3G) (B2U)
                 (AU) (B1U) (B3U) (B2G) (AG) (B1G) (B3U) (B1G)
                 (AG) (AU) (B2G) (B2U) (B3U) (B3G) (AG) (B3G) (B1U)
                 (AG) (AG) (B2U) (B2U) (AU) (AG) (B2G) (B1U) (AG)
                 (B2U) (B3U) (B3G) (B2U) (B1U) (B1U) (B1U) (B3G)
                 (B3G) (AG) (B1G) (B2U) (B1U) (B2U) (AG) (B2G)
                 (AU) (B3G) (B3U) (B2G) (AU) (B1U) (B1G) (B1G)
                 (B3U) (B3G) (AG) (B1U) (B2G) (B2U) (AU) (AG) (B2U)
                 (B3G) (B2G) (B3G) (AU) (B1U) (AG) (B2U) (B1U)
                 (B1U) (B3G) (AG) (B2U) (AG) (B3G) (B3G) (B1U)
                 (B1U) (B3G) (B1U) (AG) (B2U) (AG) (B1U) (B2U)
                 (B3G) (B1U) (AG) (B2U) (B3G) (AG) (B1U) (B3G)
                 (B1U)
 The electronic state of the initial guess is 1-AG.
 Requested convergence on RMS density matrix=1.00D-08 within 128 cycles.
 Requested convergence on MAX density matrix=1.00D-06.
 Requested convergence on             energy=1.00D-06.
 No special actions if energy rises.
 Keep R1 ints in memory in canonical form, NReq=359411989.
 Integral accuracy reduced to 1.0D-05 until final iterations.
 Initial convergence to 1.0D-05 achieved.  Increase integral accuracy.
 SCF Done:  E(RB3LYP) =  -539.530523223     A.U. after   13 cycles
             Convg  =    0.8645D-08             -V/T =  2.0099
 ExpMin= 1.61D-01 ExpMax= 3.05D+03 ExpMxC= 4.57D+02 IAcc=1 IRadAn=         1 AccDes= 0.00D+00
 HarFok:  IExCor=  205 AccDes= 0.00D+00 IRadAn=         1 IDoV=-2
 ScaDFX=  1.000000  1.000000  1.000000  1.000000
 Range of M.O.s used for correlation:    15   230
 NBasis=   230 NAE=    47 NBE=    47 NFC=    14 NFV=     0
 NROrb=    216 NOA=    33 NOB=    33 NVA=   183 NVB=   183

 **** Warning!!: The largest alpha MO coefficient is  0.13271803D+02

 Would need an additional   327500000 words for in-memory AO integral storage.
 Orbital symmetries:
       Occupied  (AG) (B2U) (B1U) (B3G) (B2U) (AG) (B1U) (B3G)
                 (AG) (B2U) (B1U) (B3G) (B1U) (AG) (AG) (B2U) (AG)
                 (B1U) (B3G) (B2U) (B1U) (AG) (B3G) (AG) (B2U)
                 (B1U) (B2U) (AG) (B3G) (AG) (B1U) (B2U) (B3G)
                 (B1U) (B2U) (B3U) (AG) (B1U) (B1G) (B2U) (B3G)
                 (AG) (B3U) (B2G) (AU) (B1G) (B2G)
       Virtual   (B3U) (AU) (B1G) (B3U) (B2G) (AG) (B2U) (B1U)
                 (AG) (B3G) (AU) (B2U) (B1U) (B3G) (AG) (B1U) (B2G)
                 (B3G) (B1U) (AG) (B1U) (B2U) (B3G) (B2U) (B2U)
                 (AG) (AG) (B1U) (B3G) (AG) (B2U) (B3G) (B3U) (B1G)
                 (B1U) (B3G) (B2G) (AG) (B3U) (B1U) (B2U) (B2U)
                 (AG) (AU) (B3G) (B1U) (B1U) (AG) (B2U) (B1G) (AG)
                 (B3U) (B2G) (B3G) (AU) (B3U) (B1G) (B2G) (B1U)
                 (AG) (AU) (B1U) (B3G) (B2U) (B3G) (B1U) (B2G)
                 (AG) (B2U) (AG) (B3G) (B1U) (B2U) (B1U) (AG) (B3G)
                 (B2U) (AG) (B3G) (B2U) (B1U) (AG) (B1U) (B3G)
                 (B2U) (B1U) (B3G) (B1G) (B3U) (B1G) (B2U) (B1U)
                 (AU) (AG) (B3U) (B2G) (AG) (B1G) (B2U) (B3U) (B1G)
                 (B3G) (AU) (B2G) (B3U) (AG) (B3G) (B1U) (AG) (AG)
                 (B2U) (B2U) (AU) (AG) (B2G) (B1U) (B3G) (B1U)
                 (B2U) (AG) (B1U) (B3U) (B2U) (B1U) (B3G) (B3G)
                 (AG) (B1G) (B2U) (B1U) (B2U) (AG) (B2G) (AU) (B3G)
                 (B3U) (B2G) (AU) (B1U) (B1G) (B1G) (B3U) (B3G)
                 (B1U) (AG) (B2G) (B2U) (AU) (AG) (B2U) (B2G) (B3G)
                 (B1U) (AU) (B3G) (B2U) (AG) (B1U) (B3G) (AG) (B1U)
                 (B2U) (AG) (B3G) (B1U) (B3G) (B1U) (B3G) (B1U)
                 (AG) (B2U) (AG) (B2U) (B1U) (B3G) (B1U) (AG) (B2U)
                 (B3G) (AG) (B1U) (B3G) (B1U)
    24 initial guesses have been made.
 Convergence on wavefunction:    0.000001000000000
 Iteration     1 Dimension    24 NMult    24
 CISAX will form    24 AO SS matrices at one time.
 No map to state      3
 Iteration     2 Dimension    30 NMult    30
 Iteration     3 Dimension    36 NMult    36
 Iteration     4 Dimension    42 NMult    42
 Iteration     5 Dimension    48 NMult    48
 Iteration     6 Dimension    54 NMult    54
 Iteration     7 Dimension    60 NMult    60
 Iteration     8 Dimension    66 NMult    66
 Iteration     9 Dimension    70 NMult    70
 ***********************************************************************
 Excited states from <AA,BB:AA,BB> singles matrix:
 ***********************************************************************
 
 Ground to excited state transition electric dipole moments (Au):
       state          X           Y           Z        Dip. S.      Osc.
         1         0.0000      0.0000      0.8522      0.7263      0.0583
         2         0.0000      0.1330      0.0000      0.0177      0.0017
         3         0.0000      0.0000      0.0000      0.0000      0.0000
 Ground to excited state transition velocity dipole moments (Au):
       state          X           Y           Z        Dip. S.      Osc.
         1         0.0000      0.0000     -0.1239      0.0153      0.0850
         2         0.0000     -0.0100      0.0000      0.0001      0.0005
         3         0.0000      0.0000      0.0000      0.0000      0.0000
 Ground to excited state transition magnetic dipole moments (Au):
       state          X           Y           Z
         1         0.0000      0.0000      0.0000
         2         0.0000      0.0000      0.0000
         3        -0.0989      0.0000      0.0000
 <0|del|b> * <b|rxdel|0> + <0|del|b> * <b|delr+rdel|0>
 Rotatory Strengths (R) in cgs (10**-40 erg-esu-cm/Gauss)
       state          XX          YY          ZZ    R(velocity)
         1         0.0000      0.0000      0.0000      0.0000
 Total R(velocity) tensor for State=          1
                 1             2             3 
      1   0.000000D+00  0.000000D+00  0.000000D+00
      2   0.000000D+00  0.000000D+00  0.000000D+00
      3   0.000000D+00  0.000000D+00  0.000000D+00
 R(velocity) tensor in inp. orien. for State=          1
                 1             2             3 
      1   0.000000D+00  0.000000D+00  0.000000D+00
      2   0.000000D+00  0.000000D+00  0.000000D+00
      3   0.000000D+00  0.000000D+00  0.000000D+00
         2         0.0000      0.0000      0.0000      0.0000
 Total R(velocity) tensor for State=          2
                 1             2             3 
      1   0.000000D+00  0.000000D+00  0.000000D+00
      2   0.000000D+00  0.000000D+00  0.000000D+00
      3   0.000000D+00  0.000000D+00  0.000000D+00
 R(velocity) tensor in inp. orien. for State=          2
                 1             2             3 
      1   0.000000D+00  0.000000D+00  0.000000D+00
      2   0.000000D+00  0.000000D+00  0.000000D+00
      3   0.000000D+00  0.000000D+00  0.000000D+00
         3         0.0000      0.0000      0.0000      0.0000
 Total R(velocity) tensor for State=          3
                 1             2             3 
      1   0.000000D+00  0.000000D+00  0.000000D+00
      2   0.000000D+00  0.000000D+00  0.000000D+00
      3   0.000000D+00  0.000000D+00  0.000000D+00
 R(velocity) tensor in inp. orien. for State=          3
                 1             2             3 
      1   0.000000D+00  0.000000D+00  0.000000D+00
      2   0.000000D+00  0.000000D+00  0.000000D+00
      3   0.000000D+00  0.000000D+00  0.000000D+00
 1/2[<0|r|b>*<b|rxdel|0> + (<0|rxdel|b>*<b|r|0>)*]
 Rotatory Strengths (R) in cgs (10**-40 erg-esu-cm/Gauss)
       state          XX          YY          ZZ     R(length)     R(au)
         1         0.0000      0.0000      0.0000      0.0000      0.0000
         2         0.0000      0.0000      0.0000      0.0000      0.0000
         3         0.0000      0.0000      0.0000      0.0000      0.0000
  1/2[<0|del|b>*<b|r|0> + (<0|r|b>*<b|del|0>)*] (Au)
       state          X           Y           Z        Dip. S.   Osc.(frdel)
         1         0.0000      0.0000     -0.1056      0.1056      0.0704
         2         0.0000     -0.0013      0.0000      0.0013      0.0009
         3         0.0000      0.0000      0.0000      0.0000      0.0000
 Ground to excited state transition densities written to RWF  633

 Excitation energies and oscillator strengths:
 
 Excited State   1:      Singlet-B1U    3.2772 eV  378.33 nm  f=0.0583  <S**2>=0.000
      47 -> 48         0.69992
 This state for optimization and/or second-order correction.
 Copying the excited state density for this state as the 1-particle RhoCI density.
 
 Excited State   2:      Singlet-B2U    3.9088 eV  317.19 nm  f=0.0017  <S**2>=0.000
      46 -> 48         0.51337
      47 -> 49         0.48411
 
 Excited State   3:      Singlet-B3G    4.5898 eV  270.13 nm  f=0.0000  <S**2>=0.000
      45 -> 48         0.58543
      47 -> 50        -0.39255
 SavETr:  write IOETrn=   770 NScale= 10 NData=  16 NLR=1 LETran=      64.
          IDoAtm=111111111111111111111111
          Differentiating once with respect to electric field.
                with respect to dipole field.
          Differentiating once with respect to nuclear coordinates.
          Keep R1 ints in memory in canonical form, NReq=353697909.
          There are     1 degrees of freedom in the 1st order CPHF.  IDoFFX=0.
 LinEq1:  Iter=  0 NonCon=     1 RMS=2.06D-03 Max=1.52D-01
 AX will form     1 AO Fock derivatives at one time.
 LinEq1:  Iter=  1 NonCon=     1 RMS=1.60D-03 Max=1.08D-01
 LinEq1:  Iter=  2 NonCon=     1 RMS=7.24D-04 Max=3.25D-02
 LinEq1:  Iter=  3 NonCon=     1 RMS=4.10D-04 Max=1.43D-02
 LinEq1:  Iter=  4 NonCon=     1 RMS=1.17D-04 Max=3.22D-03
 LinEq1:  Iter=  5 NonCon=     1 RMS=5.49D-05 Max=1.51D-03
 LinEq1:  Iter=  6 NonCon=     1 RMS=1.51D-05 Max=2.53D-04
 LinEq1:  Iter=  7 NonCon=     1 RMS=5.85D-06 Max=1.92D-04
 LinEq1:  Iter=  8 NonCon=     1 RMS=3.47D-06 Max=1.12D-04
 LinEq1:  Iter=  9 NonCon=     1 RMS=8.26D-07 Max=1.84D-05
 LinEq1:  Iter= 10 NonCon=     1 RMS=8.00D-08 Max=2.11D-06
 LinEq1:  Iter= 11 NonCon=     1 RMS=1.55D-08 Max=3.31D-07
 LinEq1:  Iter= 12 NonCon=     1 RMS=2.21D-09 Max=5.35D-08
 LinEq1:  Iter= 13 NonCon=     1 RMS=2.34D-10 Max=6.42D-09
 LinEq1:  Iter= 14 NonCon=     0 RMS=4.44D-11 Max=8.84D-10
 Linear equations converged to 1.000D-10 1.000D-09 after    14 iterations.
 End of Minotr Frequency-dependent properties file   721 does not exist.
 End of Minotr Frequency-dependent properties file   722 does not exist.

 **********************************************************************

            Population analysis using the SCF density.

 **********************************************************************

 Orbital symmetries:
       Occupied  (AG) (B2U) (B1U) (B3G) (B2U) (AG) (B1U) (B3G)
                 (AG) (B2U) (B1U) (B3G) (B1U) (AG) (AG) (B2U) (AG)
                 (B1U) (B3G) (B2U) (B1U) (AG) (B3G) (AG) (B2U)
                 (B1U) (B2U) (AG) (B3G) (AG) (B1U) (B2U) (B3G)
                 (B1U) (B2U) (B3U) (AG) (B1U) (B1G) (B2U) (B3G)
                 (AG) (B3U) (B2G) (AU) (B1G) (B2G)
       Virtual   (B3U) (AU) (B1G) (B3U) (B2G) (AG) (B2U) (B1U)
                 (AG) (B3G) (AU) (B2U) (B1U) (B3G) (AG) (B1U) (B2G)
                 (B3G) (B1U) (AG) (B1U) (B2U) (B3G) (B2U) (B2U)
                 (AG) (AG) (B1U) (B3G) (AG) (B2U) (B3G) (B3U) (B1G)
                 (B1U) (B3G) (B2G) (AG) (B3U) (B1U) (B2U) (B2U)
                 (AG) (AU) (B3G) (B1U) (B1U) (AG) (B2U) (B1G) (AG)
                 (B3U) (B2G) (B3G) (AU) (B3U) (B1G) (B2G) (B1U)
                 (AG) (AU) (B1U) (B3G) (B2U) (B3G) (B1U) (B2G)
                 (AG) (B2U) (AG) (B3G) (B1U) (B2U) (B1U) (AG) (B3G)
                 (B2U) (AG) (B3G) (B2U) (B1U) (AG) (B1U) (B3G)
                 (B2U) (B1U) (B3G) (B1G) (B3U) (B1G) (B2U) (B1U)
                 (AU) (AG) (B3U) (B2G) (AG) (B1G) (B2U) (B3U) (B1G)
                 (B3G) (AU) (B2G) (B3U) (AG) (B3G) (B1U) (AG) (AG)
                 (B2U) (B2U) (AU) (AG) (B2G) (B1U) (B3G) (B1U)
                 (B2U) (AG) (B1U) (B3U) (B2U) (B1U) (B3G) (B3G)
                 (AG) (B1G) (B2U) (B1U) (B2U) (AG) (B2G) (AU) (B3G)
                 (B3U) (B2G) (AU) (B1U) (B1G) (B1G) (B3U) (B3G)
                 (B1U) (AG) (B2G) (B2U) (AU) (AG) (B2U) (B2G) (B3G)
                 (B1U) (AU) (B3G) (B2U) (AG) (B1U) (B3G) (AG) (B1U)
                 (B2U) (AG) (B3G) (B1U) (B3G) (B1U) (B3G) (B1U)
                 (AG) (B2U) (AG) (B2U) (B1U) (B3G) (B1U) (AG) (B2U)
                 (B3G) (AG) (B1U) (B3G) (B1U)
 The electronic state is 1-AG.
 Alpha  occ. eigenvalues --  -10.19742 -10.19740 -10.19704 -10.19701 -10.19077
 Alpha  occ. eigenvalues --  -10.19077 -10.19042 -10.19042 -10.18979 -10.18979
 Alpha  occ. eigenvalues --  -10.18971 -10.18970 -10.18968 -10.18967  -0.87727
 Alpha  occ. eigenvalues --   -0.84597  -0.79744  -0.78056  -0.74840  -0.73509
 Alpha  occ. eigenvalues --   -0.70018  -0.64175  -0.61259  -0.59746  -0.58841
 Alpha  occ. eigenvalues --   -0.53747  -0.51831  -0.50105  -0.46343  -0.45959
 Alpha  occ. eigenvalues --   -0.44986  -0.44129  -0.42220  -0.41250  -0.40305
 Alpha  occ. eigenvalues --   -0.39591  -0.38637  -0.37649  -0.35790  -0.34481
 Alpha  occ. eigenvalues --   -0.33326  -0.32440  -0.30024  -0.29528  -0.25382
 Alpha  occ. eigenvalues --   -0.23722  -0.19206
 Alpha virt. eigenvalues --   -0.05994  -0.01048   0.00873   0.04561   0.06839
 Alpha virt. eigenvalues --    0.09933   0.10250   0.11082   0.14152   0.14638
 Alpha virt. eigenvalues --    0.15696   0.16810   0.17133   0.17817   0.18120
 Alpha virt. eigenvalues --    0.21415   0.21671   0.23200   0.26802   0.27098
 Alpha virt. eigenvalues --    0.30447   0.30917   0.31051   0.33219   0.33955
 Alpha virt. eigenvalues --    0.34646   0.39320   0.46447   0.48868   0.49627
 Alpha virt. eigenvalues --    0.49704   0.50420   0.50713   0.52913   0.54677
 Alpha virt. eigenvalues --    0.55435   0.55443   0.55561   0.56664   0.57484
 Alpha virt. eigenvalues --    0.57492   0.58364   0.59342   0.60115   0.60429
 Alpha virt. eigenvalues --    0.61653   0.61989   0.62363   0.63011   0.63116
 Alpha virt. eigenvalues --    0.63324   0.63887   0.64123   0.65767   0.68536
 Alpha virt. eigenvalues --    0.70784   0.73777   0.75032   0.80862   0.82345
 Alpha virt. eigenvalues --    0.82559   0.83567   0.83586   0.84075   0.84648
 Alpha virt. eigenvalues --    0.85396   0.85801   0.86070   0.89997   0.90110
 Alpha virt. eigenvalues --    0.92001   0.92877   0.94491   0.95967   0.96451
 Alpha virt. eigenvalues --    0.99153   1.01909   1.03662   1.04061   1.06205
 Alpha virt. eigenvalues --    1.07270   1.11828   1.12986   1.16887   1.17385
 Alpha virt. eigenvalues --    1.19246   1.23162   1.23434   1.24302   1.27049
 Alpha virt. eigenvalues --    1.29322   1.33914   1.37347   1.37610   1.40404
 Alpha virt. eigenvalues --    1.41140   1.44132   1.44324   1.46109   1.47547
 Alpha virt. eigenvalues --    1.48821   1.49921   1.50136   1.50249   1.50761
 Alpha virt. eigenvalues --    1.53694   1.54220   1.54688   1.72912   1.75059
 Alpha virt. eigenvalues --    1.75559   1.78188   1.83450   1.87417   1.88396
 Alpha virt. eigenvalues --    1.89523   1.91032   1.92000   1.92411   1.92427
 Alpha virt. eigenvalues --    1.92900   1.93683   1.95926   1.96871   1.97141
 Alpha virt. eigenvalues --    2.00097   2.01550   2.06960   2.08972   2.12595
 Alpha virt. eigenvalues --    2.13666   2.15287   2.18159   2.21499   2.21851
 Alpha virt. eigenvalues --    2.23036   2.26483   2.27390   2.28024   2.31161
 Alpha virt. eigenvalues --    2.35207   2.35815   2.36631   2.38257   2.38508
 Alpha virt. eigenvalues --    2.40799   2.46081   2.58710   2.60793   2.64608
 Alpha virt. eigenvalues --    2.65632   2.65690   2.66660   2.67280   2.67477
 Alpha virt. eigenvalues --    2.73630   2.73832   2.78456   2.82470   2.85003
 Alpha virt. eigenvalues --    2.85190   2.91697   2.92848   2.93167   3.09029
 Alpha virt. eigenvalues --    3.11174   3.30032   3.43540   3.49308   4.07919
 Alpha virt. eigenvalues --    4.08338   4.10255   4.12246   4.12255   4.13015
 Alpha virt. eigenvalues --    4.17079   4.23344   4.33198   4.35548   4.42811
 Alpha virt. eigenvalues --    4.45163   4.65847   4.85666
          Condensed to atoms (all electrons):
              1          2          3          4          5          6
     1  C    4.907147   0.477326  -0.021748  -0.036948   0.536994  -0.004634
     2  C    0.477326   4.907147   0.536994  -0.004634  -0.021748  -0.036948
     3  C   -0.021748   0.536994   5.078564   0.434090  -0.065568  -0.029679
     4  C   -0.036948  -0.004634   0.434090   4.736414  -0.029679   0.460998
     5  C    0.536994  -0.021748  -0.065568  -0.029679   5.078564   0.434090
     6  C   -0.004634  -0.036948  -0.029679   0.460998   0.434090   4.736414
     7  C   -0.000626   0.007858  -0.085097   0.398119   0.015333  -0.021224
     8  C    0.000030  -0.000296   0.007277   0.011488  -0.000198  -0.033581
     9  C    0.007858  -0.000626   0.015333  -0.021224  -0.085097   0.398119
    10  C   -0.000296   0.000030  -0.000198  -0.033581   0.007277   0.011488
    11  C    0.000000   0.000002  -0.000213   0.007277  -0.000006  -0.000198
    12  C    0.000000   0.000000   0.000002  -0.000296   0.000000   0.000030
    13  C    0.000000   0.000000   0.000000   0.000030   0.000002  -0.000296
    14  C    0.000002   0.000000  -0.000006  -0.000198  -0.000213   0.007277
    15  H    0.356913  -0.041348   0.004173   0.000964  -0.036341   0.002775
    16  H   -0.041348   0.356913  -0.036341   0.002775   0.004173   0.000964
    17  H    0.004543  -0.045529   0.354002  -0.041241   0.000458   0.004548
    18  H   -0.045529   0.004543   0.000458   0.004548   0.354002  -0.041241
    19  H    0.000018   0.000146  -0.007800  -0.041549  -0.000190   0.004276
    20  H    0.000146   0.000018  -0.000190   0.004276  -0.007800  -0.041549
    21  H    0.000000   0.000000  -0.000003   0.000167   0.000000   0.000014
    22  H    0.000000   0.000000   0.000000   0.000003   0.000000  -0.000001
    23  H    0.000000   0.000000   0.000000  -0.000001   0.000000   0.000003
    24  H    0.000000   0.000000   0.000000   0.000014  -0.000003   0.000167
              7          8          9         10         11         12
     1  C   -0.000626   0.000030   0.007858  -0.000296   0.000000   0.000000
     2  C    0.007858  -0.000296  -0.000626   0.000030   0.000002   0.000000
     3  C   -0.085097   0.007277   0.015333  -0.000198  -0.000213   0.000002
     4  C    0.398119   0.011488  -0.021224  -0.033581   0.007277  -0.000296
     5  C    0.015333  -0.000198  -0.085097   0.007277  -0.000006   0.000000
     6  C   -0.021224  -0.033581   0.398119   0.011488  -0.000198   0.000030
     7  C    5.451471   0.398119  -0.112500  -0.021224  -0.085097   0.007858
     8  C    0.398119   4.736414  -0.021224   0.460998   0.434090  -0.004634
     9  C   -0.112500  -0.021224   5.451471   0.398119   0.015333  -0.000626
    10  C   -0.021224   0.460998   0.398119   4.736414  -0.029679  -0.036948
    11  C   -0.085097   0.434090   0.015333  -0.029679   5.078564   0.536994
    12  C    0.007858  -0.004634  -0.000626  -0.036948   0.536994   4.907147
    13  C   -0.000626  -0.036948   0.007858  -0.004634  -0.021748   0.477326
    14  C    0.015333  -0.029679  -0.085097   0.434090  -0.065568  -0.021748
    15  H    0.000010  -0.000001  -0.000201   0.000003   0.000000   0.000000
    16  H   -0.000201   0.000003   0.000010  -0.000001   0.000000   0.000000
    17  H   -0.008354   0.000167  -0.000177   0.000014  -0.000003   0.000000
    18  H   -0.000177   0.000014  -0.008354   0.000167   0.000000   0.000000
    19  H    0.346879  -0.041549   0.000525   0.004276  -0.007800   0.000146
    20  H    0.000525   0.004276   0.346879  -0.041549  -0.000190   0.000018
    21  H   -0.008354  -0.041241  -0.000177   0.004548   0.354002  -0.045529
    22  H   -0.000201   0.002775   0.000010   0.000964  -0.036341   0.356913
    23  H    0.000010   0.000964  -0.000201   0.002775   0.004173  -0.041348
    24  H   -0.000177   0.004548  -0.008354  -0.041241   0.000458   0.004543
             13         14         15         16         17         18
     1  C    0.000000   0.000002   0.356913  -0.041348   0.004543  -0.045529
     2  C    0.000000   0.000000  -0.041348   0.356913  -0.045529   0.004543
     3  C    0.000000  -0.000006   0.004173  -0.036341   0.354002   0.000458
     4  C    0.000030  -0.000198   0.000964   0.002775  -0.041241   0.004548
     5  C    0.000002  -0.000213  -0.036341   0.004173   0.000458   0.354002
     6  C   -0.000296   0.007277   0.002775   0.000964   0.004548  -0.041241
     7  C   -0.000626   0.015333   0.000010  -0.000201  -0.008354  -0.000177
     8  C   -0.036948  -0.029679  -0.000001   0.000003   0.000167   0.000014
     9  C    0.007858  -0.085097  -0.000201   0.000010  -0.000177  -0.008354
    10  C   -0.004634   0.434090   0.000003  -0.000001   0.000014   0.000167
    11  C   -0.021748  -0.065568   0.000000   0.000000  -0.000003   0.000000
    12  C    0.477326  -0.021748   0.000000   0.000000   0.000000   0.000000
    13  C    4.907147   0.536994   0.000000   0.000000   0.000000   0.000000
    14  C    0.536994   5.078564   0.000000   0.000000   0.000000  -0.000003
    15  H    0.000000   0.000000   0.593349  -0.004706  -0.000184  -0.005594
    16  H    0.000000   0.000000  -0.004706   0.593349  -0.005594  -0.000184
    17  H    0.000000   0.000000  -0.000184  -0.005594   0.600865   0.000019
    18  H    0.000000  -0.000003  -0.005594  -0.000184   0.000019   0.600865
    19  H    0.000018  -0.000190   0.000000  -0.000012   0.006629   0.000003
    20  H    0.000146  -0.007800  -0.000012   0.000000   0.000003   0.006629
    21  H    0.004543   0.000458   0.000000   0.000000   0.000002   0.000000
    22  H   -0.041348   0.004173   0.000000   0.000000   0.000000   0.000000
    23  H    0.356913  -0.036341   0.000000   0.000000   0.000000   0.000000
    24  H   -0.045529   0.354002   0.000000   0.000000   0.000000   0.000002
             19         20         21         22         23         24
     1  C    0.000018   0.000146   0.000000   0.000000   0.000000   0.000000
     2  C    0.000146   0.000018   0.000000   0.000000   0.000000   0.000000
     3  C   -0.007800  -0.000190  -0.000003   0.000000   0.000000   0.000000
     4  C   -0.041549   0.004276   0.000167   0.000003  -0.000001   0.000014
     5  C   -0.000190  -0.007800   0.000000   0.000000   0.000000  -0.000003
     6  C    0.004276  -0.041549   0.000014  -0.000001   0.000003   0.000167
     7  C    0.346879   0.000525  -0.008354  -0.000201   0.000010  -0.000177
     8  C   -0.041549   0.004276  -0.041241   0.002775   0.000964   0.004548
     9  C    0.000525   0.346879  -0.000177   0.000010  -0.000201  -0.008354
    10  C    0.004276  -0.041549   0.004548   0.000964   0.002775  -0.041241
    11  C   -0.007800  -0.000190   0.354002  -0.036341   0.004173   0.000458
    12  C    0.000146   0.000018  -0.045529   0.356913  -0.041348   0.004543
    13  C    0.000018   0.000146   0.004543  -0.041348   0.356913  -0.045529
    14  C   -0.000190  -0.007800   0.000458   0.004173  -0.036341   0.354002
    15  H    0.000000  -0.000012   0.000000   0.000000   0.000000   0.000000
    16  H   -0.000012   0.000000   0.000000   0.000000   0.000000   0.000000
    17  H    0.006629   0.000003   0.000002   0.000000   0.000000   0.000000
    18  H    0.000003   0.006629   0.000000   0.000000   0.000000   0.000002
    19  H    0.600513   0.000025   0.006629  -0.000012   0.000000   0.000003
    20  H    0.000025   0.600513   0.000003   0.000000  -0.000012   0.006629
    21  H    0.006629   0.000003   0.600865  -0.005594  -0.000184   0.000019
    22  H   -0.000012   0.000000  -0.005594   0.593349  -0.004706  -0.000184
    23  H    0.000000  -0.000012  -0.000184  -0.004706   0.593349  -0.005594
    24  H    0.000003   0.006629   0.000019  -0.000184  -0.005594   0.600865
 Mulliken atomic charges:
              1
     1  C   -0.139848
     2  C   -0.139848
     3  C   -0.184051
     4  C    0.148189
     5  C   -0.184051
     6  C    0.148189
     7  C   -0.297660
     8  C    0.148189
     9  C   -0.297660
    10  C    0.148189
    11  C   -0.184051
    12  C   -0.139848
    13  C   -0.139848
    14  C   -0.184051
    15  H    0.130199
    16  H    0.130199
    17  H    0.129833
    18  H    0.129833
    19  H    0.129017
    20  H    0.129017
    21  H    0.129833
    22  H    0.130199
    23  H    0.130199
    24  H    0.129833
 Sum of Mulliken atomic charges =   0.00000
 Mulliken charges with hydrogens summed into heavy atoms:
              1
     1  C   -0.009649
     2  C   -0.009649
     3  C   -0.054218
     4  C    0.148189
     5  C   -0.054218
     6  C    0.148189
     7  C   -0.168642
     8  C    0.148189
     9  C   -0.168642
    10  C    0.148189
    11  C   -0.054218
    12  C   -0.009649
    13  C   -0.009649
    14  C   -0.054218
 Sum of Mulliken charges with hydrogens summed into heavy atoms =   0.00000
 Electronic spatial extent (au):  <R**2>=           2860.6091
 Charge=              0.0000 electrons
 Dipole moment (field-independent basis, Debye):
    X=              0.0000    Y=              0.0000    Z=              0.0000  Tot=              0.0000
 Quadrupole moment (field-independent basis, Debye-Ang):
   XX=            -85.7918   YY=            -69.7211   ZZ=            -70.6207
   XY=              0.0000   XZ=              0.0000   YZ=              0.0000
 Traceless Quadrupole moment (field-independent basis, Debye-Ang):
   XX=            -10.4139   YY=              5.6567   ZZ=              4.7572
   XY=              0.0000   XZ=              0.0000   YZ=              0.0000
 Octapole moment (field-independent basis, Debye-Ang**2):
  XXX=              0.0000  YYY=              0.0000  ZZZ=              0.0000  XYY=              0.0000
  XXY=              0.0000  XXZ=              0.0000  XZZ=              0.0000  YZZ=              0.0000
  YYZ=              0.0000  XYZ=              0.0000
 Hexadecapole moment (field-independent basis, Debye-Ang**3):
 XXXX=            -89.0687 YYYY=          -2799.2724 ZZZZ=           -690.0805 XXXY=              0.0000
 XXXZ=              0.0000 YYYX=              0.0000 YYYZ=              0.0000 ZZZX=              0.0000
 ZZZY=              0.0000 XXYY=           -588.8933 XXZZ=           -153.5838 YYZZ=           -593.6253
 XXYZ=              0.0000 YYXZ=              0.0000 ZZXY=              0.0000
 N-N= 7.652193579671D+02 E-N=-2.779352074729D+03  KE= 5.342624314619D+02
 Symmetry AG   KE= 1.490847903695D+02
 Symmetry B1G  KE= 4.225281227450D+00
 Symmetry B2G  KE= 4.582630542784D+00
 Symmetry B3G  KE= 1.103413105716D+02
 Symmetry AU   KE= 2.248292062589D+00
 Symmetry B1U  KE= 1.444810397478D+02
 Symmetry B2U  KE= 1.154387139619D+02
 Symmetry B3U  KE= 3.860372978161D+00
 Calling FoFJK, ICntrl=      5127 FMM=F ISym2X=1 I1Cent= 0 IOpClX= 0 NMat=1 NMatS=1 NMatT=0.
 ***** Axes restored to original set *****
 -------------------------------------------------------------------
 Center     Atomic                   Forces (Hartrees/Bohr)
 Number     Number              X              Y              Z
 -------------------------------------------------------------------
      1        6           0.028092234    0.035109987    0.000000000
      2        6           0.028092234   -0.035109987    0.000000000
      3        6          -0.034917025    0.006432072    0.000000000
      4        6           0.020970460   -0.001986032    0.000000000
      5        6          -0.034917025   -0.006432072    0.000000000
      6        6           0.020970460    0.001986032    0.000000000
      7        6           0.000000000    0.005705654    0.000000000
      8        6          -0.020970460   -0.001986032    0.000000000
      9        6           0.000000000   -0.005705654    0.000000000
     10        6          -0.020970460    0.001986032    0.000000000
     11        6           0.034917025    0.006432072    0.000000000
     12        6          -0.028092234   -0.035109987    0.000000000
     13        6          -0.028092234    0.035109987    0.000000000
     14        6           0.034917025   -0.006432072    0.000000000
     15        1           0.000067410    0.000564140    0.000000000
     16        1           0.000067410   -0.000564140    0.000000000
     17        1          -0.000256997   -0.000106913    0.000000000
     18        1          -0.000256997    0.000106913    0.000000000
     19        1           0.000000000   -0.000050723    0.000000000
     20        1           0.000000000    0.000050723    0.000000000
     21        1           0.000256997   -0.000106913    0.000000000
     22        1          -0.000067410   -0.000564140    0.000000000
     23        1          -0.000067410    0.000564140    0.000000000
     24        1           0.000256997    0.000106913    0.000000000
 -------------------------------------------------------------------
 Cartesian Forces:  Max     0.035109987 RMS     0.014419967

 GradGradGradGradGradGradGradGradGradGradGradGradGradGradGradGradGradGrad
 Berny optimization.
 Search for a local minimum.
 Step number   1 out of a maximum of    2
 All quantities printed in internal units (Hartrees-Bohrs-Radians)
 Second derivative matrix not updated -- first step.
     Eigenvalues ---    0.00230   0.00239   0.00990   0.00997   0.01098
     Eigenvalues ---    0.01612   0.02507   0.02556   0.02683   0.02895
     Eigenvalues ---    0.02976   0.03496   0.05148   0.05360   0.06963
     Eigenvalues ---    0.06987   0.07005   0.07083   0.07689   0.07712
     Eigenvalues ---    0.08127   0.08695   0.09061   0.10339   0.11195
     Eigenvalues ---    0.11301   0.11626   0.12594   0.13528   0.15476
     Eigenvalues ---    0.15615   0.19942   0.23710   0.23979   0.27203
     Eigenvalues ---    0.30168   0.33081   0.34784   0.34969   0.34985
     Eigenvalues ---    0.37466   0.38056   0.42710   0.43824   0.48224
     Eigenvalues ---    0.55137   0.59148   0.65472   0.73210   0.75458
     Eigenvalues ---    0.77844   0.98317   1.03395   1.10499   1.13889
     Eigenvalues ---    1.21565   1.25453   1.27987   1.35317   1.42782
     Eigenvalues ---    1.42870   1.47185   1.57954   1.61304   1.63356
     Eigenvalues ---    1.74142
 Angle between quadratic step and forces=  66.36 degrees.
 ClnCor:  largest displacement from symmetrization is 2.14D-10 for atom    20.
 Linear search not attempted -- first point.
 ClnCor:  largest displacement from symmetrization is 2.42D-27 for atom    20.
 TrRot=  0.000000  0.000000  0.000000  0.000000  0.000000  0.000000
 Variable       Old X    -DE/DX   Delta X   Delta X   Delta X     New X
                                 (Linear)    (Quad)   (Total)
    X1        6.91743   0.02809   0.00000   0.08591   0.08591   7.00334
    Y1       -1.34790   0.03511   0.00000   0.02722   0.02722  -1.32068
    Z1        0.00000   0.00000   0.00000   0.00000   0.00000   0.00000
    X2        6.91743   0.02809   0.00000   0.08591   0.08591   7.00334
    Y2        1.34790  -0.03511   0.00000  -0.02722  -0.02722   1.32068
    Z2        0.00000   0.00000   0.00000   0.00000   0.00000   0.00000
    X3        4.68561  -0.03492   0.00000   0.01947   0.01947   4.70508
    Y3        2.65927   0.00643   0.00000  -0.02068  -0.02068   2.63859
    Z3        0.00000   0.00000   0.00000   0.00000   0.00000   0.00000
    X4        2.31275   0.02097   0.00000   0.03848   0.03848   2.35122
    Y4        1.36543  -0.00199   0.00000  -0.00762  -0.00762   1.35782
    Z4        0.00000   0.00000   0.00000   0.00000   0.00000   0.00000
    X5        4.68561  -0.03492   0.00000   0.01947   0.01947   4.70508
    Y5       -2.65927  -0.00643   0.00000   0.02068   0.02068  -2.63859
    Z5        0.00000   0.00000   0.00000   0.00000   0.00000   0.00000
    X6        2.31275   0.02097   0.00000   0.03848   0.03848   2.35122
    Y6       -1.36543   0.00199   0.00000   0.00762   0.00762  -1.35782
    Z6        0.00000   0.00000   0.00000   0.00000   0.00000   0.00000
    X7        0.00000   0.00000   0.00000   0.00000   0.00000   0.00000
    Y7        2.65240   0.00571   0.00000  -0.01546  -0.01546   2.63695
    Z7        0.00000   0.00000   0.00000   0.00000   0.00000   0.00000
    X8       -2.31275  -0.02097   0.00000  -0.03848  -0.03848  -2.35122
    Y8        1.36543  -0.00199   0.00000  -0.00762  -0.00762   1.35782
    Z8        0.00000   0.00000   0.00000   0.00000   0.00000   0.00000
    X9        0.00000   0.00000   0.00000   0.00000   0.00000   0.00000
    Y9       -2.65240  -0.00571   0.00000   0.01546   0.01546  -2.63695
    Z9        0.00000   0.00000   0.00000   0.00000   0.00000   0.00000
   X10       -2.31275  -0.02097   0.00000  -0.03848  -0.03848  -2.35122
   Y10       -1.36543   0.00199   0.00000   0.00762   0.00762  -1.35782
   Z10        0.00000   0.00000   0.00000   0.00000   0.00000   0.00000
   X11       -4.68561   0.03492   0.00000  -0.01947  -0.01947  -4.70508
   Y11        2.65927   0.00643   0.00000  -0.02068  -0.02068   2.63859
   Z11        0.00000   0.00000   0.00000   0.00000   0.00000   0.00000
   X12       -6.91743  -0.02809   0.00000  -0.08591  -0.08591  -7.00334
   Y12        1.34790  -0.03511   0.00000  -0.02722  -0.02722   1.32068
   Z12        0.00000   0.00000   0.00000   0.00000   0.00000   0.00000
   X13       -6.91743  -0.02809   0.00000  -0.08591  -0.08591  -7.00334
   Y13       -1.34790   0.03511   0.00000   0.02722   0.02722  -1.32068
   Z13        0.00000   0.00000   0.00000   0.00000   0.00000   0.00000
   X14       -4.68561   0.03492   0.00000  -0.01947  -0.01947  -4.70508
   Y14       -2.65927  -0.00643   0.00000   0.02068   0.02068  -2.63859
   Z14        0.00000   0.00000   0.00000   0.00000   0.00000   0.00000
   X15        8.70679   0.00007   0.00000   0.08331   0.08331   8.79010
   Y15       -2.35541   0.00056   0.00000   0.02386   0.02386  -2.33155
   Z15        0.00000   0.00000   0.00000   0.00000   0.00000   0.00000
   X16        8.70679   0.00007   0.00000   0.08331   0.08331   8.79010
   Y16        2.35541  -0.00056   0.00000  -0.02386  -0.02386   2.33155
   Z16        0.00000   0.00000   0.00000   0.00000   0.00000   0.00000
   X17        4.67973  -0.00026   0.00000   0.00585   0.00585   4.68558
   Y17        4.71446  -0.00011   0.00000  -0.02102  -0.02102   4.69344
   Z17        0.00000   0.00000   0.00000   0.00000   0.00000   0.00000
   X18        4.67973  -0.00026   0.00000   0.00585   0.00585   4.68558
   Y18       -4.71446   0.00011   0.00000   0.02102   0.02102  -4.69344
   Z18        0.00000   0.00000   0.00000   0.00000   0.00000   0.00000
   X19        0.00000   0.00000   0.00000   0.00000   0.00000   0.00000
   Y19        4.70912  -0.00005   0.00000  -0.01560  -0.01560   4.69351
   Z19        0.00000   0.00000   0.00000   0.00000   0.00000   0.00000
   X20        0.00000   0.00000   0.00000   0.00000   0.00000   0.00000
   Y20       -4.70912   0.00005   0.00000   0.01560   0.01560  -4.69351
   Z20        0.00000   0.00000   0.00000   0.00000   0.00000   0.00000
   X21       -4.67973   0.00026   0.00000  -0.00585  -0.00585  -4.68558
   Y21        4.71446  -0.00011   0.00000  -0.02102  -0.02102   4.69344
   Z21        0.00000   0.00000   0.00000   0.00000   0.00000   0.00000
   X22       -8.70679  -0.00007   0.00000  -0.08331  -0.08331  -8.79010
   Y22        2.35541  -0.00056   0.00000  -0.02386  -0.02386   2.33155
   Z22        0.00000   0.00000   0.00000   0.00000   0.00000   0.00000
   X23       -8.70679  -0.00007   0.00000  -0.08331  -0.08331  -8.79010
   Y23       -2.35541   0.00056   0.00000   0.02386   0.02386  -2.33155
   Z23        0.00000   0.00000   0.00000   0.00000   0.00000   0.00000
   X24       -4.67973   0.00026   0.00000  -0.00585  -0.00585  -4.68558
   Y24       -4.71446   0.00011   0.00000   0.02102   0.02102  -4.69344
   Z24        0.00000   0.00000   0.00000   0.00000   0.00000   0.00000
         Item               Value     Threshold  Converged?
 Maximum Force            0.035110     0.000450     NO 
 RMS     Force            0.014420     0.000300     NO 
 Maximum Displacement     0.085910     0.001800     NO 
 RMS     Displacement     0.032226     0.001200     NO 
 Predicted change in Energy=-6.708497D-03
 GradGradGradGradGradGradGradGradGradGradGradGradGradGradGradGradGradGrad

 1\1\GINC-CLODOMIRA\Force\RTD-B3LYP-FC\6-31G(d)\C14H10\DIEGOA\26-Sep-20
 19\0\\# b3lyp/6-31G(d) TD(root=1) Force\\Title\\0,1\C,3.660546,-0.7132
 78,0.\C,3.660546,0.713278,0.\C,2.479518,1.407225,0.\C,1.223854,0.72255
 7,0.\C,2.479518,-1.407225,0.\C,1.223854,-0.722557,0.\C,0.,1.403592,0.\
 C,-1.223854,0.722557,0.\C,0.,-1.403592,0.\C,-1.223854,-0.722557,0.\C,-
 2.479518,1.407225,0.\C,-3.660546,0.713278,0.\C,-3.660546,-0.713278,0.\
 C,-2.479518,-1.407225,0.\H,4.607435,-1.246428,0.\H,4.607435,1.246428,0
 .\H,2.476408,2.494786,0.\H,2.476408,-2.494786,0.\H,0.,2.491957,0.\H,0.
 ,-2.491957,0.\H,-2.476408,2.494786,0.\H,-4.607435,1.246428,0.\H,-4.607
 435,-1.246428,0.\H,-2.476408,-2.494786,0.\\Version=EM64L-G09RevA.01\St
 ate=1-AG\HF=-539.5305232\RMSD=8.645e-09\RMSF=1.442e-02\Dipole=0.,0.,0.
 \PG=D02H [C2"(H1C1.C1H1),SG(C12H8)]\\@


 IT IS A CAPITAL MISTAKE TO THEORIZE BEFORE ONE HAS
 DATA.  INSENSIBLY ONE BEGINS TO TWIST FACTS TO SUIT
 THEORIES RATHER THAN THEORIES TO SUIT FACTS.

                                         -- SHERLOCK HOLMES
 Job cpu time:  0 days  0 hours 19 minutes 59.4 seconds.
 File lengths (MBytes):  RWF=    123 Int=      0 D2E=      0 Chk=     13 Scr=      1
 Normal termination of Gaussian 09 at Thu Sep 26 10:32:13 2019.
