Title                                                                   
Freq      RPBEPBE                                                     Gen                 
Number of atoms                            I                6
Info1-9                                    I   N=           9
          93          93        1002           0           0         100
           6          18         902
Charge                                     I                0
Multiplicity                               I                1
Number of electrons                        I               24
Number of alpha electrons                  I               12
Number of beta electrons                   I               12
Number of basis functions                  I               48
Number of independent functions            I               48
Number of point charges in /Mol/           I                0
Number of translation vectors              I                0
Atomic numbers                             I   N=           6
           6           7           8           1           1           1
Nuclear charges                            R   N=           6
  6.00000000E+00  7.00000000E+00  8.00000000E+00  1.00000000E+00  1.00000000E+00
  1.00000000E+00
Current cartesian coordinates              R   N=          18
 -3.03663613E-01  7.42168280E-01  2.82304942E-03  2.07047846E+00 -3.05016370E-01
 -5.12849724E-02 -2.29057374E+00 -4.66980306E-01  7.25715999E-03  2.24300519E+00
 -2.22025580E+00  1.06461817E-01  3.64208034E+00  7.84552926E-01  1.76509806E-01
 -2.31863157E-01  2.85365023E+00  1.02760648E-03
Force Field                                I                0
Int Atom Types                             I   N=           6
           0           0           0           0           0           0
MM charges                                 R   N=           6
  0.00000000E+00  0.00000000E+00  0.00000000E+00  0.00000000E+00  0.00000000E+00
  0.00000000E+00
Integer atomic weights                     I   N=           6
          12          14          16           1           1           1
Real atomic weights                        R   N=           6
  1.20000000E+01  1.40030740E+01  1.59949146E+01  1.00782504E+00  1.00782504E+00
  1.00782504E+00
Atom fragment info                         I   N=           6
           0           0           0           0           0           0
Atom residue num                           I   N=           6
           0           0           0           0           0           0
Nuclear spins                              I   N=           6
           0           2           0           1           1           1
Nuclear ZEff                               R   N=           6
 -3.60000000E+00 -4.55000000E+00 -5.60000000E+00 -1.00000000E+00 -1.00000000E+00
 -1.00000000E+00
Nuclear QMom                               R   N=           6
  0.00000000E+00  2.04400000E+00  0.00000000E+00  0.00000000E+00  0.00000000E+00
  0.00000000E+00
Nuclear GFac                               R   N=           6
  0.00000000E+00  4.03761000E-01  0.00000000E+00  2.79284600E+00  2.79284600E+00
  2.79284600E+00
MicOpt                                     I   N=           6
          -1          -1          -1          -1          -1          -1
Number of contracted shells                I               24
Number of primitive shells                 I               60
Pure/Cartesian d shells                    I                0
Pure/Cartesian f shells                    I                0
Highest angular momentum                   I                2
Largest degree of contraction              I                6
Shell types                                I   N=          24
           0           0           0           1           1          -2
           0           0           0           1           1          -2
           0           0           0           1           1          -2
           0           0           0           0           0           0
Number of primitives per shell             I   N=          24
           6           2           1           4           1           1
           6           2           1           4           1           1
           6           2           1           4           1           1
           4           1           4           1           4           1
Shell to atom map                          I   N=          24
           1           1           1           1           1           1
           2           2           2           2           2           2
           3           3           3           3           3           3
           4           4           5           5           6           6
Primitive exponents                        R   N=          60
  2.80806450E+03  4.21138280E+02  9.55866160E+01  2.67390040E+01  8.43282680E+00
  2.76058210E+00  5.44700450E+00  4.79242200E-01  1.46156500E-01  1.81308520E+01
  4.09988320E+00  1.18583700E+00  3.68597400E-01  1.09720000E-01  6.00000000E-01
  3.84541490E+03  5.77533230E+02  1.31319830E+02  3.68237810E+01  1.16701150E+01
  3.85426040E+00  7.82956110E+00  6.87735100E-01  2.04038800E-01  2.68098410E+01
  6.06815400E+00  1.76762560E+00  5.46672700E-01  1.58728900E-01  7.00000000E-01
  5.22290220E+03  7.82539940E+02  1.77267430E+02  4.95166880E+01  1.56664400E+01
  5.17935990E+00  1.06014410E+01  9.42317000E-01  2.77474600E-01  3.34241260E+01
  7.62217140E+00  2.23820930E+00  6.86730000E-01  1.93813500E-01  8.00000000E-01
  5.09991780E+01  7.48321810E+00  1.77746760E+00  5.19329500E-01  1.54110000E-01
  5.09991780E+01  7.48321810E+00  1.77746760E+00  5.19329500E-01  1.54110000E-01
  5.09991780E+01  7.48321810E+00  1.77746760E+00  5.19329500E-01  1.54110000E-01
Contraction coefficients                   R   N=          60
  2.01780002E-03  1.54332002E-02  7.55815007E-02  2.47828202E-01  4.79372505E-01
  3.33834403E-01 -1.43534074E-01  1.04912299E+00  1.00000000E+00  2.03187183E-02
  1.22623062E-01  3.90762298E-01  6.32450946E-01  1.00000000E+00  1.00000000E+00
  2.01860013E-03  1.54078010E-02  7.53714047E-02  2.48212215E-01  4.79827430E-01
  3.31801221E-01 -1.44112511E-01  1.04922215E+00  1.00000000E+00  1.97958777E-02
  1.23436666E-01  3.94682415E-01  6.28653093E-01  1.00000000E+00  1.00000000E+00
 -1.93639996E-03 -1.48506997E-02 -7.33186984E-02 -2.45116195E-01 -4.80284690E-01
 -3.35942693E-01  1.45779125E-01 -1.05015252E+00  1.00000000E+00  2.21293883E-02
  1.35634702E-01  4.07705086E-01  6.08954698E-01  1.00000000E+00  1.00000000E+00
  9.66049981E-03  7.37288986E-02  2.95858094E-01  7.15905286E-01  1.00000000E+00
  9.66049981E-03  7.37288986E-02  2.95858094E-01  7.15905286E-01  1.00000000E+00
  9.66049981E-03  7.37288986E-02  2.95858094E-01  7.15905286E-01  1.00000000E+00
Coordinates of each shell                  R   N=          72
 -3.03663613E-01  7.42168280E-01  2.82304942E-03 -3.03663613E-01  7.42168280E-01
  2.82304942E-03 -3.03663613E-01  7.42168280E-01  2.82304942E-03 -3.03663613E-01
  7.42168280E-01  2.82304942E-03 -3.03663613E-01  7.42168280E-01  2.82304942E-03
 -3.03663613E-01  7.42168280E-01  2.82304942E-03  2.07047846E+00 -3.05016370E-01
 -5.12849724E-02  2.07047846E+00 -3.05016370E-01 -5.12849724E-02  2.07047846E+00
 -3.05016370E-01 -5.12849724E-02  2.07047846E+00 -3.05016370E-01 -5.12849724E-02
  2.07047846E+00 -3.05016370E-01 -5.12849724E-02  2.07047846E+00 -3.05016370E-01
 -5.12849724E-02 -2.29057374E+00 -4.66980306E-01  7.25715999E-03 -2.29057374E+00
 -4.66980306E-01  7.25715999E-03 -2.29057374E+00 -4.66980306E-01  7.25715999E-03
 -2.29057374E+00 -4.66980306E-01  7.25715999E-03 -2.29057374E+00 -4.66980306E-01
  7.25715999E-03 -2.29057374E+00 -4.66980306E-01  7.25715999E-03  2.24300519E+00
 -2.22025580E+00  1.06461817E-01  2.24300519E+00 -2.22025580E+00  1.06461817E-01
  3.64208034E+00  7.84552926E-01  1.76509806E-01  3.64208034E+00  7.84552926E-01
  1.76509806E-01 -2.31863157E-01  2.85365023E+00  1.02760648E-03 -2.31863157E-01
  2.85365023E+00  1.02760648E-03
Density Number of contracted shells        I               72
Density Number of primitive shells         I               72
Density Pure/Cartesian d shells            I                0
Density Pure/Cartesian f shells            I                0
Density Highest angular momentum           I                3
Density Largest degree of contraction      I                1
Density Shell types                        I   N=          72
           0           0           0          -1          -2          -1
          -2          -1          -2          -1          -2          -1
          -2          -1          -2          -3          -1          -2
          -3           0           0           0          -1          -2
          -1          -2          -1          -2          -1          -2
          -1          -2          -1          -2          -3          -1
          -2          -3           0           0           0          -1
          -2          -1          -2          -1          -2          -1
          -2          -1          -2          -1          -2          -3
          -1          -2          -3           0           0           0
           0           0           0           0           0           0
           0           0           0           0           0           0
Density Number of primitives per shell     I   N=          72
           1           1           1           1           1           1
           1           1           1           1           1           1
           1           1           1           1           1           1
           1           1           1           1           1           1
           1           1           1           1           1           1
           1           1           1           1           1           1
           1           1           1           1           1           1
           1           1           1           1           1           1
           1           1           1           1           1           1
           1           1           1           1           1           1
           1           1           1           1           1           1
           1           1           1           1           1           1
Density Shell to atom map                  I   N=          72
           1           1           1           1           1           1
           1           1           1           1           1           1
           1           1           1           1           1           1
           1           2           2           2           2           2
           2           2           2           2           2           2
           2           2           2           2           2           2
           2           2           3           3           3           3
           3           3           3           3           3           3
           3           3           3           3           3           3
           3           3           3           4           4           4
           4           4           5           5           5           5
           5           6           6           6           6           6
Density Primitive exponents                R   N=          72
  5.61612900E+03  8.42276560E+02  1.91173232E+02  4.40363906E+01  4.40363906E+01
  1.68656536E+01  1.68656536E+01  9.45136651E+00  9.45136651E+00  5.52116420E+00
  5.52116420E+00  2.37167400E+00  2.37167400E+00  8.89165708E-01  8.89165708E-01
  8.89165708E-01  2.53268957E-01  2.53268957E-01  2.53268957E-01  7.69082980E+03
  1.15506646E+03  2.62639660E+02  6.28407420E+01  6.28407420E+01  2.33402300E+01
  2.33402300E+01  1.37856422E+01  1.37856422E+01  7.70852080E+00  7.70852080E+00
  3.53525120E+00  3.53525120E+00  1.23175262E+00  1.23175262E+00  1.23175262E+00
  3.59926961E-01  3.59926961E-01  3.59926961E-01  1.04458044E+04  1.56507988E+03
  3.54534860E+02  8.13646611E+01  8.13646611E+01  3.13328800E+01  3.13328800E+01
  1.79784316E+01  1.79784316E+01  1.03587198E+01  1.03587198E+01  4.47641860E+00
  4.47641860E+00  1.67146586E+00  1.67146586E+00  1.67146586E+00  4.63803076E-01
  4.63803076E-01  4.63803076E-01  1.01998356E+02  1.49664362E+01  3.55493520E+00
  1.03865900E+00  3.08220000E-01  1.01998356E+02  1.49664362E+01  3.55493520E+00
  1.03865900E+00  3.08220000E-01  1.01998356E+02  1.49664362E+01  3.55493520E+00
  1.03865900E+00  3.08220000E-01
Density Contraction coefficients           R   N=          72
  1.00000000E+00  1.00000000E+00  1.00000000E+00  1.00000000E+00  1.00000000E+00
  1.00000000E+00  1.00000000E+00  1.00000000E+00  1.00000000E+00  1.00000000E+00
  1.00000000E+00  1.00000000E+00  1.00000000E+00  1.00000000E+00  1.00000000E+00
  1.00000000E+00  1.00000000E+00  1.00000000E+00  1.00000000E+00  1.00000000E+00
  1.00000000E+00  1.00000000E+00  1.00000000E+00  1.00000000E+00  1.00000000E+00
  1.00000000E+00  1.00000000E+00  1.00000000E+00  1.00000000E+00  1.00000000E+00
  1.00000000E+00  1.00000000E+00  1.00000000E+00  1.00000000E+00  1.00000000E+00
  1.00000000E+00  1.00000000E+00  1.00000000E+00  1.00000000E+00  1.00000000E+00
  1.00000000E+00  1.00000000E+00  1.00000000E+00  1.00000000E+00  1.00000000E+00
  1.00000000E+00  1.00000000E+00  1.00000000E+00  1.00000000E+00  1.00000000E+00
  1.00000000E+00  1.00000000E+00  1.00000000E+00  1.00000000E+00  1.00000000E+00
  1.00000000E+00  1.00000000E+00  1.00000000E+00  1.00000000E+00  1.00000000E+00
  1.00000000E+00  1.00000000E+00  1.00000000E+00  1.00000000E+00  1.00000000E+00
  1.00000000E+00  1.00000000E+00  1.00000000E+00  1.00000000E+00  1.00000000E+00
  1.00000000E+00  1.00000000E+00
Density P(S=P) Contraction coefficients    R   N=          72
  0.00000000E+00  0.00000000E+00  0.00000000E+00  1.00000000E+00  0.00000000E+00
  1.00000000E+00  0.00000000E+00  1.00000000E+00  0.00000000E+00  1.00000000E+00
  0.00000000E+00  1.00000000E+00  0.00000000E+00  1.00000000E+00  0.00000000E+00
  0.00000000E+00  1.00000000E+00  0.00000000E+00  0.00000000E+00  0.00000000E+00
  0.00000000E+00  0.00000000E+00  1.00000000E+00  0.00000000E+00  1.00000000E+00
  0.00000000E+00  1.00000000E+00  0.00000000E+00  1.00000000E+00  0.00000000E+00
  1.00000000E+00  0.00000000E+00  1.00000000E+00  0.00000000E+00  0.00000000E+00
  1.00000000E+00  0.00000000E+00  0.00000000E+00  0.00000000E+00  0.00000000E+00
  0.00000000E+00  1.00000000E+00  0.00000000E+00  1.00000000E+00  0.00000000E+00
  1.00000000E+00  0.00000000E+00  1.00000000E+00  0.00000000E+00  1.00000000E+00
  0.00000000E+00  1.00000000E+00  0.00000000E+00  0.00000000E+00  1.00000000E+00
  0.00000000E+00  0.00000000E+00  0.00000000E+00  0.00000000E+00  0.00000000E+00
  0.00000000E+00  0.00000000E+00  0.00000000E+00  0.00000000E+00  0.00000000E+00
  0.00000000E+00  0.00000000E+00  0.00000000E+00  0.00000000E+00  0.00000000E+00
  0.00000000E+00  0.00000000E+00
Density Coordinates of each shell          R   N=         216
 -3.03663613E-01  7.42168280E-01  2.82304942E-03 -3.03663613E-01  7.42168280E-01
  2.82304942E-03 -3.03663613E-01  7.42168280E-01  2.82304942E-03 -3.03663613E-01
  7.42168280E-01  2.82304942E-03 -3.03663613E-01  7.42168280E-01  2.82304942E-03
 -3.03663613E-01  7.42168280E-01  2.82304942E-03 -3.03663613E-01  7.42168280E-01
  2.82304942E-03 -3.03663613E-01  7.42168280E-01  2.82304942E-03 -3.03663613E-01
  7.42168280E-01  2.82304942E-03 -3.03663613E-01  7.42168280E-01  2.82304942E-03
 -3.03663613E-01  7.42168280E-01  2.82304942E-03 -3.03663613E-01  7.42168280E-01
  2.82304942E-03 -3.03663613E-01  7.42168280E-01  2.82304942E-03 -3.03663613E-01
  7.42168280E-01  2.82304942E-03 -3.03663613E-01  7.42168280E-01  2.82304942E-03
 -3.03663613E-01  7.42168280E-01  2.82304942E-03 -3.03663613E-01  7.42168280E-01
  2.82304942E-03 -3.03663613E-01  7.42168280E-01  2.82304942E-03 -3.03663613E-01
  7.42168280E-01  2.82304942E-03  2.07047846E+00 -3.05016370E-01 -5.12849724E-02
  2.07047846E+00 -3.05016370E-01 -5.12849724E-02  2.07047846E+00 -3.05016370E-01
 -5.12849724E-02  2.07047846E+00 -3.05016370E-01 -5.12849724E-02  2.07047846E+00
 -3.05016370E-01 -5.12849724E-02  2.07047846E+00 -3.05016370E-01 -5.12849724E-02
  2.07047846E+00 -3.05016370E-01 -5.12849724E-02  2.07047846E+00 -3.05016370E-01
 -5.12849724E-02  2.07047846E+00 -3.05016370E-01 -5.12849724E-02  2.07047846E+00
 -3.05016370E-01 -5.12849724E-02  2.07047846E+00 -3.05016370E-01 -5.12849724E-02
  2.07047846E+00 -3.05016370E-01 -5.12849724E-02  2.07047846E+00 -3.05016370E-01
 -5.12849724E-02  2.07047846E+00 -3.05016370E-01 -5.12849724E-02  2.07047846E+00
 -3.05016370E-01 -5.12849724E-02  2.07047846E+00 -3.05016370E-01 -5.12849724E-02
  2.07047846E+00 -3.05016370E-01 -5.12849724E-02  2.07047846E+00 -3.05016370E-01
 -5.12849724E-02  2.07047846E+00 -3.05016370E-01 -5.12849724E-02 -2.29057374E+00
 -4.66980306E-01  7.25715999E-03 -2.29057374E+00 -4.66980306E-01  7.25715999E-03
 -2.29057374E+00 -4.66980306E-01  7.25715999E-03 -2.29057374E+00 -4.66980306E-01
  7.25715999E-03 -2.29057374E+00 -4.66980306E-01  7.25715999E-03 -2.29057374E+00
 -4.66980306E-01  7.25715999E-03 -2.29057374E+00 -4.66980306E-01  7.25715999E-03
 -2.29057374E+00 -4.66980306E-01  7.25715999E-03 -2.29057374E+00 -4.66980306E-01
  7.25715999E-03 -2.29057374E+00 -4.66980306E-01  7.25715999E-03 -2.29057374E+00
 -4.66980306E-01  7.25715999E-03 -2.29057374E+00 -4.66980306E-01  7.25715999E-03
 -2.29057374E+00 -4.66980306E-01  7.25715999E-03 -2.29057374E+00 -4.66980306E-01
  7.25715999E-03 -2.29057374E+00 -4.66980306E-01  7.25715999E-03 -2.29057374E+00
 -4.66980306E-01  7.25715999E-03 -2.29057374E+00 -4.66980306E-01  7.25715999E-03
 -2.29057374E+00 -4.66980306E-01  7.25715999E-03 -2.29057374E+00 -4.66980306E-01
  7.25715999E-03  2.24300519E+00 -2.22025580E+00  1.06461817E-01  2.24300519E+00
 -2.22025580E+00  1.06461817E-01  2.24300519E+00 -2.22025580E+00  1.06461817E-01
  2.24300519E+00 -2.22025580E+00  1.06461817E-01  2.24300519E+00 -2.22025580E+00
  1.06461817E-01  3.64208034E+00  7.84552926E-01  1.76509806E-01  3.64208034E+00
  7.84552926E-01  1.76509806E-01  3.64208034E+00  7.84552926E-01  1.76509806E-01
  3.64208034E+00  7.84552926E-01  1.76509806E-01  3.64208034E+00  7.84552926E-01
  1.76509806E-01 -2.31863157E-01  2.85365023E+00  1.02760648E-03 -2.31863157E-01
  2.85365023E+00  1.02760648E-03 -2.31863157E-01  2.85365023E+00  1.02760648E-03
 -2.31863157E-01  2.85365023E+00  1.02760648E-03 -2.31863157E-01  2.85365023E+00
  1.02760648E-03
Constraint Structure                       R   N=          18
 -3.03663613E-01  7.42168280E-01  2.82304942E-03  2.07047846E+00 -3.05016370E-01
 -5.12849724E-02 -2.29057374E+00 -4.66980306E-01  7.25715999E-03  2.24300519E+00
 -2.22025580E+00  1.06461817E-01  3.64208034E+00  7.84552926E-01  1.76509806E-01
 -2.31863157E-01  2.85365023E+00  1.02760648E-03
Num ILSW                                   I              100
ILSW                                       I   N=         100
           0           0           0           0           2           0
           0           0           0           0        1009          -1
           5           0           0           0           0           0
           0           0           1           0           1           0
           1           0           0           0           0           0
           0           0      100000           0          -1           0
           0           0           0           0           0           0
           0           0           0           1           0           0
           0           0           1           0           0           0
           0           0           4          40           0           0
           0           0           0           0           0           0
           0           0           0           0           0           0
           0           0           0           0           0           0
           0           0           0           0           0           0
           0           0           0           0           0           0
           0           0           0           0           0           0
           0           0           0           0
Num RLSW                                   I               40
RLSW                                       R   N=          40
  1.00000000E+00  1.00000000E+00  1.00000000E+00  1.00000000E+00  0.00000000E+00
  0.00000000E+00  0.00000000E+00  1.00000000E+00  0.00000000E+00  0.00000000E+00
  0.00000000E+00  0.00000000E+00  1.00000000E+00  0.00000000E+00  0.00000000E+00
  0.00000000E+00  0.00000000E+00  1.00000000E+00  0.00000000E+00  0.00000000E+00
  0.00000000E+00  0.00000000E+00  1.00000000E+00  0.00000000E+00  0.00000000E+00
  0.00000000E+00  0.00000000E+00  1.00000000E+00  0.00000000E+00  0.00000000E+00
  0.00000000E+00  0.00000000E+00  0.00000000E+00  0.00000000E+00  0.00000000E+00
  0.00000000E+00  0.00000000E+00  0.00000000E+00  1.00000000E+00  1.00000000E+00
MxBond                                     I                3
NBond                                      I   N=           6
           3           3           1           1           1           1
IBond                                      I   N=          18
           2           3           6           1           4           5
           1           0           0           2           0           0
           2           0           0           1           0           0
RBond                                      R   N=          18
  1.41000000E+00  2.00000000E+00  1.00000000E+00  1.41000000E+00  1.00000000E+00
  1.00000000E+00  2.00000000E+00  0.00000000E+00  0.00000000E+00  1.00000000E+00
  0.00000000E+00  0.00000000E+00  1.00000000E+00  0.00000000E+00  0.00000000E+00
  1.00000000E+00  0.00000000E+00  0.00000000E+00
Virial Ratio                               R      2.012999855491400E+00
SCF Energy                                 R     -1.697293591348401E+02
Total Energy                               R     -1.697293591348401E+02
RMS Force                                  R      3.141893717272106E-07
RMS Density                                R      9.643435908467512E-10
External E-field                           R   N=          35
  0.00000000E+00  0.00000000E+00  0.00000000E+00  0.00000000E+00  0.00000000E+00
  0.00000000E+00  0.00000000E+00  0.00000000E+00  0.00000000E+00  0.00000000E+00
  0.00000000E+00  0.00000000E+00  0.00000000E+00  0.00000000E+00  0.00000000E+00
  0.00000000E+00  0.00000000E+00  0.00000000E+00  0.00000000E+00  0.00000000E+00
  0.00000000E+00  0.00000000E+00  0.00000000E+00  0.00000000E+00  0.00000000E+00
  0.00000000E+00  0.00000000E+00  0.00000000E+00  0.00000000E+00  0.00000000E+00
  0.00000000E+00  0.00000000E+00  0.00000000E+00  0.00000000E+00  0.00000000E+00
IOpCl                                      I                0
IROHF                                      I                0
Alpha Orbital Energies                     R   N=          48
 -1.87400082E+01 -1.40338551E+01 -1.00101294E+01 -9.44274634E-01 -8.33829901E-01
 -5.71019212E-01 -5.07424932E-01 -4.30520259E-01 -3.63110551E-01 -3.59054329E-01
 -2.42789736E-01 -2.14900546E-01 -2.30127069E-02  3.95586975E-02  7.37296895E-02
  1.26137937E-01  1.77477965E-01  2.62007906E-01  2.75467877E-01  2.96942593E-01
  4.12925957E-01  4.49500764E-01  4.62110425E-01  5.06766897E-01  5.67117245E-01
  6.46630514E-01  6.83286422E-01  7.04578319E-01  7.55033659E-01  8.15832014E-01
  9.24303492E-01  1.07341740E+00  1.13624628E+00  1.15235235E+00  1.38418987E+00
  1.43348464E+00  1.54532776E+00  1.60252061E+00  1.70734955E+00  1.83904270E+00
  1.88410365E+00  1.95896568E+00  1.99035418E+00  2.08815581E+00  2.23003381E+00
  2.32797782E+00  2.52506614E+00  2.69145883E+00
Alpha MO coefficients                      R   N=        2304
  1.58054096E-06  4.45715018E-04  8.38649585E-04 -5.02856259E-04 -3.71579281E-04
 -5.21440899E-07 -4.05740905E-04 -7.70236127E-04 -2.32125680E-06 -1.25962035E-04
 -2.37847107E-06  1.87839569E-06  3.44880949E-05  1.03969915E-04  6.02863546E-06
  5.75311675E-05 -2.84991050E-04  2.31577705E-05 -2.20134818E-05 -1.45907497E-06
  3.19014455E-04  3.24205192E-04  3.35163557E-06  1.96809113E-05  3.70607531E-06
  7.50891343E-06 -3.63709099E-05 -3.49884270E-06  9.98276645E-01  5.63723814E-03
 -1.74125510E-03 -1.12899335E-03 -6.41283607E-04  3.71758285E-06 -1.83386604E-04
 -3.06814086E-05 -1.42179855E-06  1.57617620E-04  6.58116969E-07  6.59213931E-07
 -1.54277446E-04 -2.72611705E-04  6.67054339E-05  4.12232284E-05 -3.01236615E-05
 -1.04510379E-04 -7.18895865E-05  3.81388135E-04 -3.34113315E-05  2.04700358E-05
 -7.31679997E-05  6.74764190E-05 -2.34764293E-05 -6.82294035E-06 -2.07303384E-04
  4.45828570E-04  3.72261357E-05 -1.86540482E-04 -3.32944855E-05  7.48440900E-06
  4.30176525E-04 -3.56833719E-04  9.98374506E-01  5.52716630E-03  7.93515832E-04
  2.56941571E-04 -9.56049977E-05  2.03003846E-04 -1.80571027E-04 -3.69186045E-05
 -6.48418775E-05 -9.68330666E-05  1.68765668E-05 -1.61643355E-06 -5.71395597E-05
  1.12251831E-04  1.93965416E-06 -3.73250048E-05  8.76584005E-06  5.57056494E-05
 -3.99842613E-05 -2.13321589E-06  7.69794962E-05 -2.35207075E-04 -1.42765504E-05
  3.92171592E-05 -4.29846503E-06 -8.12473665E-06  1.73818695E-04 -8.16064363E-05
 -1.87550635E-05 -1.70481959E-04 -2.75060505E-05 -1.24531293E-04  1.79206794E-04
 -3.93051548E-04  9.98547896E-01  3.96668315E-03 -1.95089830E-03  5.10584618E-04
  4.05015509E-04 -1.38160273E-05 -3.17588675E-04  2.94611443E-04  2.58431924E-05
  4.35191741E-04  1.62307089E-05  5.62995145E-07 -5.02689222E-04 -1.70794397E-04
 -1.71079764E-04 -1.61372537E-04  1.30343318E-03 -4.96878822E-04  2.16140561E-04
  1.42345100E-05 -6.54994829E-04  7.87287540E-04 -5.12622444E-06 -5.03480829E-04
 -3.54538859E-05  2.64730220E-05  5.25380118E-04 -7.56137234E-04  2.75726354E-04
  7.96459390E-05  1.88059735E-03  9.03810056E-04  6.02909787E-04  1.33433601E-06
  8.17076548E-04  5.74342893E-04 -5.24548956E-06 -6.70588908E-04  1.67661205E-06
  1.11581668E-06  3.89792788E-04  1.08454775E-03  3.42205027E-05  4.76139603E-04
  4.74142182E-06 -1.06847708E-04  4.16082753E-04 -2.32975519E-04  1.37567873E-01
 -2.75944321E-01 -9.12142366E-02  1.17172157E-01  1.11230347E-01  3.15063146E-04
 -1.23020412E-03 -2.01455689E-02 -2.23044412E-04  1.72755801E-02  4.89068800E-05
 -2.36383901E-05 -1.07478514E-02 -1.79941791E-02  6.87296842E-02 -1.43014694E-01
 -1.13866160E-01  4.83929311E-02 -7.07853890E-03 -6.03481894E-03  9.19832906E-03
 -6.90387558E-03 -2.07969802E-03  7.82255270E-03 -2.76362404E-04 -4.03097087E-05
 -4.07154064E-03  4.76412329E-04 -1.91065265E-01  4.02479642E-01 -2.97753400E-01
 -1.54056915E-01 -8.60501003E-02  3.76229179E-04 -8.68351828E-03  6.76803712E-04
  1.06848503E-05  6.74815839E-03  5.60477604E-05  1.80500465E-05 -8.06620240E-03
 -1.33639499E-02 -3.36302199E-02 -4.58189512E-03 -2.71049544E-02  9.55224975E-03
 -3.65859629E-02  1.46799076E-02 -3.39201684E-02  7.16415503E-02  2.60462815E-02
  2.30027127E-01  4.11313501E-03 -1.25802584E-03  6.25697869E-03 -2.94313075E-03
 -6.21538392E-04 -4.73268255E-03  5.12570912E-05  8.17877123E-05  5.61094993E-03
 -2.26804180E-02 -2.04660898E-01  4.34617690E-01  3.33826127E-01 -6.09418033E-03
  1.77512567E-02  2.23998886E-02  2.67730675E-02 -2.09296585E-03  6.82861720E-03
 -1.74391052E-02  2.42624728E-03  4.61241360E-05 -4.29948933E-03  2.45751408E-03
 -9.19741724E-02  1.97921248E-01 -1.45399313E-01 -4.33674937E-02 -4.40773009E-02
  3.13124826E-05  7.89095043E-03  3.09482641E-03 -3.20303500E-05  2.10894448E-03
  2.46922284E-05  4.65008307E-05 -7.24263669E-06 -6.03352640E-03  1.18999835E-01
 -6.07255232E-03  1.28635814E-01 -8.69529622E-03  1.93385969E-02  7.76957134E-03
 -1.41079432E-01  3.24070945E-01  1.74131617E-01  1.90224752E-01  1.42277097E-01
 -8.32159892E-03  2.97517726E-02  4.38854156E-02  2.02056576E-03 -7.25802551E-03
 -1.46158559E-03  5.86545975E-04 -5.98563835E-03 -4.86593187E-03  4.87503203E-02
 -1.08142680E-01 -1.41709170E-01 -2.92989685E-01  2.59741245E-01 -2.22947701E-02
 -8.40359980E-02  7.44731426E-02 -8.27172500E-03  4.86195329E-03 -3.88140085E-03
  2.99151854E-03  7.34168760E-03 -1.15860587E-02 -6.58334807E-02  1.48066620E-01
 -1.35858484E-01  3.68087013E-02  3.98195942E-02 -2.25795680E-03  2.25440695E-02
  1.87403225E-02 -1.44446912E-03 -1.60691670E-03 -3.14906879E-04 -2.31654301E-04
 -8.34020012E-04  2.81375193E-03 -1.74001760E-01 -3.51564382E-02 -8.72424248E-02
 -2.58181238E-02  1.60844710E-01  2.76358858E-02  1.68193147E-02 -4.25432561E-02
 -2.86437935E-03 -1.08990065E-01  2.32033313E-01  1.02968651E-02 -1.72505428E-02
  1.26573699E-02  8.44806227E-04 -8.59636776E-04  1.17615922E-03 -7.52729846E-04
  9.47666083E-03  1.99826229E-02 -7.08727847E-04  1.84191884E-04  1.83965669E-02
  3.89489580E-01  3.32535844E-01  2.21192445E-02  1.13693527E-01  1.24061031E-01
  7.16597910E-03 -1.91324992E-03  5.32864192E-03  5.23347125E-03  7.11523795E-03
  1.31134494E-02  3.11554884E-02 -6.90955822E-02  7.75205885E-02 -9.24696449E-02
  6.44748364E-02  4.03812219E-03 -2.70013742E-02  1.36858150E-02  6.22333343E-04
  2.97398082E-03  3.43528567E-04  2.24218804E-04 -9.04671779E-03  1.51321481E-03
 -1.47987824E-01 -3.27043053E-02  2.66878949E-01  9.24109832E-02  7.98729685E-02
  4.24321549E-02  5.46652149E-02 -1.29622198E-01 -1.32447713E-01  2.49658898E-01
 -3.22903819E-01 -1.37499930E-02 -3.44425026E-03 -8.89276865E-02 -6.85111780E-04
  5.36409635E-05 -1.13515087E-03  5.49012419E-04  2.38895805E-02  2.06894061E-03
 -1.63566734E-02  3.78156863E-02  2.29188452E-02 -1.44356904E-01  3.42695845E-01
 -1.22552053E-02 -4.67573480E-02  1.35396862E-01 -6.92624316E-03  2.28276265E-03
 -7.27470599E-04  4.40188893E-03  1.62065894E-02  9.70644421E-03  5.43743094E-02
 -1.21375854E-01  1.57457207E-01 -4.72971808E-02 -2.38810321E-01 -6.85526987E-03
 -1.47410742E-02 -6.79262077E-02 -2.69977611E-03  5.03189460E-03 -6.15018524E-04
 -3.22403528E-04  1.14913987E-02 -1.42216542E-02 -1.91146098E-01 -7.76373422E-02
  6.21545180E-02  3.11286393E-02 -2.11435490E-01 -8.81858012E-02 -3.95245486E-02