 Entering Gaussian System, Link 0=g09
 Input=freq.com
 Output=freq.log
 Initial command:
 /home/diegoa/progs/g09/l1.exe /home/diegoa/g09scratch/Gau-16575.inp -scrdir=/home/diegoa/g09scratch/
 Default is to use a total of   4 processors:
                                4 via shared-memory
                                1 via Linda
 Entering Link 1 = /home/diegoa/progs/g09/l1.exe PID=     16580.
  
 Copyright (c) 1988,1990,1992,1993,1995,1998,2003,2009, Gaussian, Inc.
                  All Rights Reserved.
  
 This is part of the Gaussian(R) 09 program.  It is based on
 the Gaussian(R) 03 system (copyright 2003, Gaussian, Inc.),
 the Gaussian(R) 98 system (copyright 1998, Gaussian, Inc.),
 the Gaussian(R) 94 system (copyright 1995, Gaussian, Inc.),
 the Gaussian 92(TM) system (copyright 1992, Gaussian, Inc.),
 the Gaussian 90(TM) system (copyright 1990, Gaussian, Inc.),
 the Gaussian 88(TM) system (copyright 1988, Gaussian, Inc.),
 the Gaussian 86(TM) system (copyright 1986, Carnegie Mellon
 University), and the Gaussian 82(TM) system (copyright 1983,
 Carnegie Mellon University). Gaussian is a federally registered
 trademark of Gaussian, Inc.
  
 This software contains proprietary and confidential information,
 including trade secrets, belonging to Gaussian, Inc.
  
 This software is provided under written license and may be
 used, copied, transmitted, or stored only in accord with that
 written license.
  
 The following legend is applicable only to US Government
 contracts under FAR:
  
                    RESTRICTED RIGHTS LEGEND
  
 Use, reproduction and disclosure by the US Government is
 subject to restrictions as set forth in subparagraphs (a)
 and (c) of the Commercial Computer Software - Restricted
 Rights clause in FAR 52.227-19.
  
 Gaussian, Inc.
 340 Quinnipiac St., Bldg. 40, Wallingford CT 06492
  
  
 ---------------------------------------------------------------
 Warning -- This program may not be used in any manner that
 competes with the business of Gaussian, Inc. or will provide
 assistance to any competitor of Gaussian, Inc.  The licensee
 of this program is prohibited from giving any competitor of
 Gaussian, Inc. access to this program.  By using this program,
 the user acknowledges that Gaussian, Inc. is engaged in the
 business of creating and licensing software in the field of
 computational chemistry and represents and warrants to the
 licensee that it is not a competitor of Gaussian, Inc. and that
 it will not use this program in any manner prohibited above.
 ---------------------------------------------------------------
  

 Cite this work as:
 Gaussian 09, Revision A.01,
 M. J. Frisch, G. W. Trucks, H. B. Schlegel, G. E. Scuseria, 
 M. A. Robb, J. R. Cheeseman, G. Scalmani, V. Barone, B. Mennucci, 
 G. A. Petersson, H. Nakatsuji, M. Caricato, X. Li, H. P. Hratchian, 
 A. F. Izmaylov, J. Bloino, G. Zheng, J. L. Sonnenberg, M. Hada, 
 M. Ehara, K. Toyota, R. Fukuda, J. Hasegawa, M. Ishida, T. Nakajima, 
 Y. Honda, O. Kitao, H. Nakai, T. Vreven, J. A. Montgomery, Jr., 
 J. E. Peralta, F. Ogliaro, M. Bearpark, J. J. Heyd, E. Brothers, 
 K. N. Kudin, V. N. Staroverov, R. Kobayashi, J. Normand, 
 K. Raghavachari, A. Rendell, J. C. Burant, S. S. Iyengar, J. Tomasi, 
 M. Cossi, N. Rega, J. M. Millam, M. Klene, J. E. Knox, J. B. Cross, 
 V. Bakken, C. Adamo, J. Jaramillo, R. Gomperts, R. E. Stratmann, 
 O. Yazyev, A. J. Austin, R. Cammi, C. Pomelli, J. W. Ochterski, 
 R. L. Martin, K. Morokuma, V. G. Zakrzewski, G. A. Voth, 
 P. Salvador, J. J. Dannenberg, S. Dapprich, A. D. Daniels, 
 O. Farkas, J. B. Foresman, J. V. Ortiz, J. Cioslowski, 
 and D. J. Fox, Gaussian, Inc., Wallingford CT, 2009.
 
 ******************************************
 Gaussian 09:  EM64L-G09RevA.01  8-May-2009
                31-Oct-2019 
 ******************************************
 %chk=freq.chk
 %NProcShared=4
 Will use up to    4 processors via shared memory.
 Default route:  MP2=Direct MaxDisk=1000GB DenFit
 ----------------------------------------------------------------------
 # pbepbe/Gen opt(verytight,maxcycles=500) Freq=(savenormalmodes,raman)
  Int(grid=ultrafine)
 ----------------------------------------------------------------------
 1/6=500,7=1,14=-1,18=20,19=15,26=3,38=1/1,3;
 2/9=110,12=2,17=6,18=5,40=1/2;
 3/5=7,11=2,16=1,25=1,30=1,71=1,74=1009,75=-5,82=47/1,2,3;
 4//1;
 5/5=2,38=5/2;
 6/7=2,8=2,9=2,10=2,28=1/1;
 7/92=1/1,2,3,16;
 1/6=500,7=1,14=-1,18=20,19=15/3(2);
 2/9=110/2;
 99//99;
 2/9=110/2;
 3/5=7,6=1,11=2,16=1,25=1,30=1,71=1,74=1009,75=-5,82=7/1,2,3;
 4/5=5,16=3/1;
 5/5=2,38=5/2;
 7/92=1/1,2,3,16;
 1/6=500,7=1,14=-1,18=20,19=15/3(-5);
 2/9=110/2;
 6/7=2,8=2,9=2,10=2,19=2,28=1/1;
 99/9=1/99;
 -----
 Title
 -----
 Symbolic Z-matrix:
 Charge =  0 Multiplicity = 1
 6                    -0.16076   0.39271  -0.00003 
 7                     1.09454  -0.16136  -0.00008 
 8                    -1.21256  -0.247     0.00003 
 1                     1.19149  -1.17738   0.00018 
 1                     1.93342   0.41671   0.00031 
 1                    -0.12167   1.50994   0.00004 
 

 GradGradGradGradGradGradGradGradGradGradGradGradGradGradGradGradGradGrad
 Berny optimization.
 Initialization pass.
                           ----------------------------
                           !    Initial Parameters    !
                           ! (Angstroms and Degrees)  !
 --------------------------                            --------------------------
 ! Name  Definition              Value          Derivative Info.                !
 --------------------------------------------------------------------------------
 ! R1    R(1,2)                  1.3721         estimate D2E/DX2                !
 ! R2    R(1,3)                  1.2311         estimate D2E/DX2                !
 ! R3    R(1,6)                  1.1179         estimate D2E/DX2                !
 ! R4    R(2,4)                  1.0206         estimate D2E/DX2                !
 ! R5    R(2,5)                  1.0188         estimate D2E/DX2                !
 ! A1    A(2,1,3)              124.8754         estimate D2E/DX2                !
 ! A2    A(2,1,6)              111.8123         estimate D2E/DX2                !
 ! A3    A(3,1,6)              123.3123         estimate D2E/DX2                !
 ! A4    A(1,2,4)              119.2669         estimate D2E/DX2                !
 ! A5    A(1,2,5)              121.6132         estimate D2E/DX2                !
 ! A6    A(4,2,5)              119.1198         estimate D2E/DX2                !
 ! D1    D(3,1,2,4)             -0.0155         estimate D2E/DX2                !
 ! D2    D(3,1,2,5)           -179.9711         estimate D2E/DX2                !
 ! D3    D(6,1,2,4)            179.9789         estimate D2E/DX2                !
 ! D4    D(6,1,2,5)              0.0233         estimate D2E/DX2                !
 --------------------------------------------------------------------------------
 Trust Radius=3.00D-01 FncErr=1.00D-07 GrdErr=1.00D-06
 Number of steps in this run= 100 maximum allowed number of steps= 100.
 GradGradGradGradGradGradGradGradGradGradGradGradGradGradGradGradGradGrad

                          Input orientation:                          
 ---------------------------------------------------------------------
 Center     Atomic      Atomic             Coordinates (Angstroms)
 Number     Number       Type             X           Y           Z
 ---------------------------------------------------------------------
      1          6           0       -0.160760    0.392714   -0.000033
      2          7           0        1.094539   -0.161363   -0.000081
      3          8           0       -1.212557   -0.247000    0.000030
      4          1           0        1.191489   -1.177384    0.000176
      5          1           0        1.933419    0.416706    0.000305
      6          1           0       -0.121670    1.509938    0.000043
 ---------------------------------------------------------------------
                    Distance matrix (angstroms):
                    1          2          3          4          5
     1  C    0.000000
     2  N    1.372143   0.000000
     3  O    1.231061   2.308685   0.000000
     4  H    2.072145   1.020636   2.577800   0.000000
     5  H    2.094316   1.018766   3.215225   1.758290   0.000000
     6  H    1.117908   2.066981   2.068058   2.991001   2.327777
                    6
     6  H    0.000000
 Stoichiometry    CH3NO
 Framework group  C1[X(CH3NO)]
 Deg. of freedom    12
 Full point group                 C1      NOp   1
 Largest Abelian subgroup         C1      NOp   1
 Largest concise Abelian subgroup C1      NOp   1
                         Standard orientation:                         
 ---------------------------------------------------------------------
 Center     Atomic      Atomic             Coordinates (Angstroms)
 Number     Number       Type             X           Y           Z
 ---------------------------------------------------------------------
      1          6           0       -0.160760    0.392714   -0.000033
      2          7           0        1.094539   -0.161363   -0.000081
      3          8           0       -1.212557   -0.247000    0.000030
      4          1           0        1.191489   -1.177384    0.000176
      5          1           0        1.933419    0.416706    0.000305
      6          1           0       -0.121670    1.509938    0.000043
 ---------------------------------------------------------------------
 Rotational constants (GHZ):     71.8362829     11.0746361      9.5953670
 General basis read from cards:  (5D, 7F)
 There are    48 symmetry adapted basis functions of A   symmetry.
 Integral buffers will be    131072 words long.
 Raffenetti 2 integral format.
 Two-electron integral symmetry is turned on.
    48 basis functions,   105 primitive gaussians,    51 cartesian basis functions
    12 alpha electrons       12 beta electrons
       nuclear repulsion energy        70.3236195829 Hartrees.
 NAtoms=    6 NActive=    6 NUniq=    6 SFac= 7.50D-01 NAtFMM=   80 NAOKFM=F Big=F
 Standard density basis: Auto (5D, 7F)
   255 Density fitting functions
 There are   255 symmetry adapted density basis functions of A   symmetry.
 One-electron integrals computed using PRISM.
 NBasis=    48 RedAO= T  NBF=    48
 NBsUse=    48 1.00D-06 NBFU=    48
 NBasis=       48 NBas6D=       51 NTT=        1176   NTT6D=     1326
 NDBShl=       51 NDBF=        255 NDBF6D=      294  NNucDB=        0
 IDenFi=        2 ISolve=        0 FullAP=F BlkAPC=T NucTyp=        0
 TolInv= 1.00D-05 TolIt=  1.00D-10 IR12=0.
 Petite list used in FoFDir.
 MinBra= 0 MaxBra= 3 Meth= 1.
 IRaf=       0 NMat=   1 IRICut=       1 DoRegI=T DoRafI=F ISym2E= 1 JSym2E=1.
  NDBF=   255  NBFD=   255
 NRank=   255 NBFDU=   255
 S*AI*S=  4.91283064281    
 Harris functional with IExCor= 1009 diagonalized for initial guess.
 ExpMin= 1.10D-01 ExpMax= 5.22D+03 ExpMxC= 7.83D+02 IAcc=3 IRadAn=         5 AccDes= 0.00D+00
 HarFok:  IExCor= 1009 AccDes= 0.00D+00 IRadAn=         5 IDoV= 1
 ScaDFX=  1.000000  1.000000  1.000000  1.000000
 FoFCou: FMM=F IPFlag=           0 FMFlag=      100000 FMFlg1=           0
         NFxFlg=           0 DoJE=T BraDBF=F KetDBF=T FulRan=T
         Omega=  0.000000  0.000000  1.000000  0.000000  0.000000 ICntrl=     500 IOpCl=  0
         NMat0=    1 NMatS0=    1 NMatT0=    0 NMatD0=    1 NMtDS0=    0 NMtDT0=    0
         I1Cent=           4 NGrid=           0.
 Petite list used in FoFCou.
 Initial guess orbital symmetries:
       Occupied  (A) (A) (A) (A) (A) (A) (A) (A) (A) (A) (A) (A)
       Virtual   (A) (A) (A) (A) (A) (A) (A) (A) (A) (A) (A) (A)
                 (A) (A) (A) (A) (A) (A) (A) (A) (A) (A) (A) (A)
                 (A) (A) (A) (A) (A) (A) (A) (A) (A) (A) (A) (A)
 The electronic state of the initial guess is 1-A.
 Requested convergence on RMS density matrix=1.00D-08 within 128 cycles.
 Requested convergence on MAX density matrix=1.00D-06.
 Requested convergence on             energy=1.00D-06.
 No special actions if energy rises.
 FoFCou: FMM=F IPFlag=           0 FMFlag=      100000 FMFlg1=           0
         NFxFlg=           0 DoJE=T BraDBF=T KetDBF=F FulRan=T
         Omega=  0.000000  0.000000  1.000000  0.000000  0.000000 ICntrl=     500 IOpCl=  0
         NMat0=    1 NMatS0=    1 NMatT0=    0 NMatD0=    1 NMtDS0=    0 NMtDT0=    0
         I1Cent=           5 NGrid=           0.
 Symmetry not used in FoFCou.
 Initial convergence to 1.0D-05 achieved.  Increase integral accuracy.
 SCF Done:  E(RPBE-PBE) =  -169.729349861     A.U. after   14 cycles
             Convg  =    0.2759D-08             -V/T =  2.0130

 **********************************************************************

            Population analysis using the SCF density.

 **********************************************************************

 Orbital symmetries:
       Occupied  (A) (A) (A) (A) (A) (A) (A) (A) (A) (A) (A) (A)
       Virtual   (A) (A) (A) (A) (A) (A) (A) (A) (A) (A) (A) (A)
                 (A) (A) (A) (A) (A) (A) (A) (A) (A) (A) (A) (A)
                 (A) (A) (A) (A) (A) (A) (A) (A) (A) (A) (A) (A)
 The electronic state is 1-A.
 Alpha  occ. eigenvalues --  -18.73923 -14.03392 -10.00985  -0.94360  -0.83356
 Alpha  occ. eigenvalues --   -0.57154  -0.50817  -0.43064  -0.36230  -0.35899
 Alpha  occ. eigenvalues --   -0.24169  -0.21455
 Alpha virt. eigenvalues --   -0.02170   0.03921   0.07351   0.12646   0.17770
 Alpha virt. eigenvalues --    0.26482   0.27279   0.29727   0.41323   0.45153
 Alpha virt. eigenvalues --    0.45689   0.50701   0.56721   0.65070   0.68348
 Alpha virt. eigenvalues --    0.70664   0.75462   0.81864   0.94732   1.07053
 Alpha virt. eigenvalues --    1.13329   1.14317   1.39701   1.41718   1.54535
 Alpha virt. eigenvalues --    1.60507   1.70923   1.83593   1.88322   1.97010
 Alpha virt. eigenvalues --    1.97625   2.09426   2.23803   2.32424   2.52643
 Alpha virt. eigenvalues --    2.69590
          Condensed to atoms (all electrons):
              1          2          3          4          5          6
     1  C    4.531296   0.395429   0.709408  -0.011571  -0.018549   0.325887
     2  N    0.395429   6.835081  -0.088652   0.299201   0.297879  -0.091433
     3  O    0.709408  -0.088652   7.756650   0.005890   0.003860  -0.075117
     4  H   -0.011571   0.299201   0.005890   0.345288  -0.016495   0.007018
     5  H   -0.018549   0.297879   0.003860  -0.016495   0.360672   0.006475
     6  H    0.325887  -0.091433  -0.075117   0.007018   0.006475   0.672556
 Mulliken atomic charges:
              1
     1  C    0.068101
     2  N   -0.647505
     3  O   -0.312038
     4  H    0.370670
     5  H    0.366158
     6  H    0.154614
 Sum of Mulliken atomic charges =   0.00000
 Mulliken charges with hydrogens summed into heavy atoms:
              1
     1  C    0.222715
     2  N    0.089323
     3  O   -0.312038
 Sum of Mulliken charges with hydrogens summed into heavy atoms =   0.00000
 Electronic spatial extent (au):  <R**2>=            149.0575
 Charge=              0.0000 electrons
 Dipole moment (field-independent basis, Debye):
    X=              3.9622    Y=              0.8017    Z=              0.0010  Tot=              4.0425
 Quadrupole moment (field-independent basis, Debye-Ang):
   XX=            -17.6254   YY=            -15.2140   ZZ=            -19.1735
   XY=             -1.1114   XZ=              0.0020   YZ=             -0.0002
 Traceless Quadrupole moment (field-independent basis, Debye-Ang):
   XX=             -0.2878   YY=              2.1236   ZZ=             -1.8358
   XY=             -1.1114   XZ=              0.0020   YZ=             -0.0002
 Octapole moment (field-independent basis, Debye-Ang**2):
  XXX=             13.1407  YYY=             -1.9297  ZZZ=              0.0011  XYY=              3.0811
  XXY=              0.7843  XXZ=              0.0036  XZZ=             -1.5146  YZZ=             -0.2207
  YYZ=              0.0010  XYZ=             -0.0002
 Hexadecapole moment (field-independent basis, Debye-Ang**3):
 XXXX=           -111.3178 YYYY=            -33.4367 ZZZZ=            -18.2555 XXXY=              2.8634
 XXXZ=              0.0073 YYYX=             -3.4272 YYYZ=             -0.0004 ZZZX=              0.0018
 ZZZY=             -0.0001 XXYY=            -23.5114 XXZZ=            -25.5126 YYZZ=             -9.7363
 XXYZ=              0.0002 YYXZ=              0.0013 ZZXY=              0.3315
 N-N= 7.032361958293D+01 E-N=-5.375930079673D+02  KE= 1.675499263122D+02
 Calling FoFJK, ICntrl=      2527 FMM=F ISym2X=0 I1Cent= 4 IOpClX= 0 NMat=1 NMatS=1 NMatT=0.
 ***** Axes restored to original set *****
 -------------------------------------------------------------------
 Center     Atomic                   Forces (Hartrees/Bohr)
 Number     Number              X              Y              Z
 -------------------------------------------------------------------
      1        6           0.000022103   -0.000153086    0.000018853
      2        7          -0.000020807    0.000071311   -0.000004723
      3        8           0.000033553    0.000071021   -0.000007295
      4        1          -0.000006678   -0.000024075    0.000000218
      5        1           0.000006216   -0.000011639   -0.000000856
      6        1          -0.000034387    0.000046468   -0.000006198
 -------------------------------------------------------------------
 Cartesian Forces:  Max     0.000153086 RMS     0.000047271

 GradGradGradGradGradGradGradGradGradGradGradGradGradGradGradGradGradGrad
 Berny optimization.
 Internal  Forces:  Max     0.000065440 RMS     0.000031069
 Search for a local minimum.
 Step number   1 out of a maximum of  100
 All quantities printed in internal units (Hartrees-Bohrs-Radians)
 Mixed Optimization -- En-DIIS/RFO-DIIS
 Second derivative matrix not updated -- first step.
 The second derivative matrix:
                          R1        R2        R3        R4        R5
           R1           0.50567
           R2           0.00000   0.90646
           R3           0.00000   0.00000   0.31777
           R4           0.00000   0.00000   0.00000   0.44237
           R5           0.00000   0.00000   0.00000   0.00000   0.44536
           A1           0.00000   0.00000   0.00000   0.00000   0.00000
           A2           0.00000   0.00000   0.00000   0.00000   0.00000
           A3           0.00000   0.00000   0.00000   0.00000   0.00000
           A4           0.00000   0.00000   0.00000   0.00000   0.00000
           A5           0.00000   0.00000   0.00000   0.00000   0.00000
           A6           0.00000   0.00000   0.00000   0.00000   0.00000
           D1           0.00000   0.00000   0.00000   0.00000   0.00000
           D2           0.00000   0.00000   0.00000   0.00000   0.00000
           D3           0.00000   0.00000   0.00000   0.00000   0.00000
           D4           0.00000   0.00000   0.00000   0.00000   0.00000
                          A1        A2        A3        A4        A5
           A1           0.25000
           A2           0.00000   0.16000
           A3           0.00000   0.00000   0.16000
           A4           0.00000   0.00000   0.00000   0.16000
           A5           0.00000   0.00000   0.00000   0.00000   0.16000
           A6           0.00000   0.00000   0.00000   0.00000   0.00000
           D1           0.00000   0.00000   0.00000   0.00000   0.00000
           D2           0.00000   0.00000   0.00000   0.00000   0.00000
           D3           0.00000   0.00000   0.00000   0.00000   0.00000
           D4           0.00000   0.00000   0.00000   0.00000   0.00000
                          A6        D1        D2        D3        D4
           A6           0.16000
           D1           0.00000   0.02060
           D2           0.00000   0.00000   0.02060
           D3           0.00000   0.00000   0.00000   0.02060
           D4           0.00000   0.00000   0.00000   0.00000   0.02060
     Eigenvalues ---    0.02060   0.02060   0.02060   0.16000   0.16000
     Eigenvalues ---    0.16000   0.22000   0.31777   0.44237   0.44536
     Eigenvalues ---    0.50567   0.906461000.000001000.000001000.00000
 RFO step:  Lambda=-5.80744157D-08 EMin= 2.06027264D-02
 Linear search not attempted -- first point.
 Iteration  1 RMS(Cart)=  0.00016164 RMS(Int)=  0.00000004
 Iteration  2 RMS(Cart)=  0.00000004 RMS(Int)=  0.00000003
 Variable       Old X    -DE/DX   Delta X   Delta X   Delta X     New X
                                 (Linear)    (Quad)   (Total)
    R1        2.59297  -0.00003   0.00000  -0.00007  -0.00007   2.59291
    R2        2.32637  -0.00007   0.00000  -0.00007  -0.00007   2.32630
    R3        2.11254   0.00005   0.00000   0.00014   0.00014   2.11268
    R4        1.92872   0.00002   0.00000   0.00005   0.00005   1.92878
    R5        1.92519   0.00000   0.00000   0.00000   0.00000   1.92519
    A1        2.17949   0.00004   0.00000   0.00019   0.00019   2.17967
    A2        1.95149   0.00002   0.00000   0.00015   0.00015   1.95164
    A3        2.15221  -0.00006   0.00000  -0.00033  -0.00033   2.15187
    A4        2.08160  -0.00002   0.00000  -0.00012  -0.00012   2.08148
    A5        2.12255   0.00002   0.00000   0.00014   0.00014   2.12269
    A6        2.07903   0.00000   0.00000  -0.00002  -0.00002   2.07902
    D1       -0.00027  -0.00001   0.00000  -0.00033  -0.00033  -0.00060
    D2       -3.14109  -0.00001   0.00000  -0.00035  -0.00035  -3.14144
    D3        3.14123   0.00001   0.00000   0.00031   0.00031   3.14153
    D4        0.00041   0.00001   0.00000   0.00028   0.00028   0.00069
         Item               Value     Threshold  Converged?
 Maximum Force            0.000065     0.000002     NO 
 RMS     Force            0.000031     0.000001     NO 
 Maximum Displacement     0.000352     0.000006     NO 
 RMS     Displacement     0.000162     0.000004     NO 
 Predicted change in Energy=-2.903823D-08
 GradGradGradGradGradGradGradGradGradGradGradGradGradGradGradGradGradGrad

                          Input orientation:                          
 ---------------------------------------------------------------------
 Center     Atomic      Atomic             Coordinates (Angstroms)
 Number     Number       Type             X           Y           Z
 ---------------------------------------------------------------------
      1          6           0       -0.160711    0.392649    0.000153
      2          7           0        1.094587   -0.161344   -0.000047
      3          8           0       -1.212558   -0.246908   -0.000047
      4          1           0        1.191474   -1.177398    0.000143
      5          1           0        1.933513    0.416656    0.000269
      6          1           0       -0.121845    1.509956   -0.000030
 ---------------------------------------------------------------------
                    Distance matrix (angstroms):
                    1          2          3          4          5
     1  C    0.000000
     2  N    1.372108   0.000000
     3  O    1.231023   2.308731   0.000000
     4  H    2.072065   1.020664   2.577825   0.000000
     5  H    2.094361   1.018764   3.215288   1.758304   0.000000
     6  H    1.117983   2.067111   2.067904   2.991100   2.328046
                    6
     6  H    0.000000
 Stoichiometry    CH3NO
 Framework group  C1[X(CH3NO)]
 Deg. of freedom    12
 Full point group                 C1      NOp   1
 Largest Abelian subgroup         C1      NOp   1
 Largest concise Abelian subgroup C1      NOp   1
                         Standard orientation:                         
 ---------------------------------------------------------------------
 Center     Atomic      Atomic             Coordinates (Angstroms)
 Number     Number       Type             X           Y           Z
 ---------------------------------------------------------------------
      1          6           0       -0.160751    0.392623    0.000129
      2          7           0        1.094573   -0.161311   -0.000072
      3          8           0       -1.212568   -0.246983   -0.000072
      4          1           0        1.191507   -1.177361    0.000118
      5          1           0        1.933471    0.416728    0.000244
      6          1           0       -0.121936    1.509932   -0.000055
 ---------------------------------------------------------------------
 Rotational constants (GHZ):     71.8494584     11.0742021      9.5952763
 Basis read from rwf:  (5D, 7F)
 There are    48 symmetry adapted basis functions of A   symmetry.
 Integral buffers will be    131072 words long.
 Raffenetti 2 integral format.
 Two-electron integral symmetry is turned on.
    48 basis functions,   105 primitive gaussians,    51 cartesian basis functions
    12 alpha electrons       12 beta electrons
       nuclear repulsion energy        70.3241272936 Hartrees.
 NAtoms=    6 NActive=    6 NUniq=    6 SFac= 7.50D-01 NAtFMM=   80 NAOKFM=F Big=F
 Density basis read from rwf:  (5D, 7F)
   255 Density fitting functions
 There are   255 symmetry adapted density basis functions of A   symmetry.
 One-electron integrals computed using PRISM.
 NBasis=    48 RedAO= T  NBF=    48
 NBsUse=    48 1.00D-06 NBFU=    48
 NBasis=       48 NBas6D=       51 NTT=        1176   NTT6D=     1326
 NDBShl=       51 NDBF=        255 NDBF6D=      294  NNucDB=        0
 IDenFi=        2 ISolve=        0 FullAP=F BlkAPC=T NucTyp=        0
 TolInv= 1.00D-05 TolIt=  1.00D-10 IR12=0.
 Petite list used in FoFDir.
 MinBra= 0 MaxBra= 3 Meth= 1.
 IRaf=       0 NMat=   1 IRICut=       1 DoRegI=T DoRafI=F ISym2E= 1 JSym2E=1.
  NDBF=   255  NBFD=   255
 NRank=   255 NBFDU=   255
 S*AI*S=  4.91284976683    
 Initial guess read from the read-write file.
 B after Tr=     0.000000    0.000000    0.000000
         Rot=    1.000000    0.000000    0.000000    0.000000 Ang=   0.00 deg.
 Initial guess orbital symmetries:
       Occupied  (A) (A) (A) (A) (A) (A) (A) (A) (A) (A) (A) (A)
       Virtual   (A) (A) (A) (A) (A) (A) (A) (A) (A) (A) (A) (A)
                 (A) (A) (A) (A) (A) (A) (A) (A) (A) (A) (A) (A)
                 (A) (A) (A) (A) (A) (A) (A) (A) (A) (A) (A) (A)
 Requested convergence on RMS density matrix=1.00D-08 within 128 cycles.
 Requested convergence on MAX density matrix=1.00D-06.
 Requested convergence on             energy=1.00D-06.
 No special actions if energy rises.
 FoFCou: FMM=F IPFlag=           0 FMFlag=      100000 FMFlg1=           0
         NFxFlg=           0 DoJE=T BraDBF=T KetDBF=F FulRan=T
         Omega=  0.000000  0.000000  1.000000  0.000000  0.000000 ICntrl=     500 IOpCl=  0
         NMat0=    1 NMatS0=    1 NMatT0=    0 NMatD0=    1 NMtDS0=    0 NMtDT0=    0
         I1Cent=           5 NGrid=           0.
 Symmetry not used in FoFCou.
 SCF Done:  E(RPBE-PBE) =  -169.729349880     A.U. after    7 cycles
             Convg  =    0.4281D-08             -V/T =  2.0130
 Calling FoFJK, ICntrl=      2527 FMM=F ISym2X=0 I1Cent= 4 IOpClX= 0 NMat=1 NMatS=1 NMatT=0.
 ***** Axes restored to original set *****
 -------------------------------------------------------------------
 Center     Atomic                   Forces (Hartrees/Bohr)
 Number     Number              X              Y              Z
 -------------------------------------------------------------------
      1        6           0.000013143   -0.000016916   -0.000054159
      2        7          -0.000013415    0.000013827    0.000011040
      3        8           0.000005252    0.000003476    0.000021323
      4        1          -0.000001743   -0.000002965    0.000000253
      5        1          -0.000000767   -0.000004056    0.000003596
      6        1          -0.000002470    0.000006634    0.000017947
 -------------------------------------------------------------------
 Cartesian Forces:  Max     0.000054159 RMS     0.000016319

 GradGradGradGradGradGradGradGradGradGradGradGradGradGradGradGradGradGrad
 Berny optimization.
 Using GEDIIS/GDIIS optimizer.
 Internal  Forces:  Max     0.000021923 RMS     0.000011295
 Search for a local minimum.
 Step number   2 out of a maximum of  100
 All quantities printed in internal units (Hartrees-Bohrs-Radians)
 Mixed Optimization -- En-DIIS/RFO-DIIS
 Swaping is turned off.
 Update second derivatives using D2CorX and points    1    2
 DE= -1.90D-08 DEPred=-2.90D-08 R= 6.54D-01
 Trust test= 6.54D-01 RLast= 7.98D-04 DXMaxT set to 3.00D-01
 The second derivative matrix:
                          R1        R2        R3        R4        R5
           R1           0.48948
           R2          -0.02552   0.87794
           R3           0.01804   0.02128   0.30204
           R4           0.00914   0.01045  -0.00777   0.43855
           R5          -0.00109  -0.00261   0.00176   0.00092   0.44535
           A1           0.01786   0.01935  -0.01452  -0.00711   0.00188
           A2           0.01081   0.01615  -0.01150  -0.00580   0.00079
           A3          -0.01894  -0.01666   0.01305   0.00624  -0.00229
           A4          -0.00794  -0.00992   0.00726   0.00360  -0.00073
           A5           0.00904   0.01132  -0.00828  -0.00411   0.00083
           A6          -0.00111  -0.00140   0.00102   0.00051  -0.00010
           D1           0.00151   0.01188  -0.00748  -0.00406  -0.00063
           D2           0.00199   0.01410  -0.00891  -0.00482  -0.00071
           D3          -0.00173  -0.01233   0.00779   0.00422   0.00062
           D4          -0.00125  -0.01011   0.00636   0.00345   0.00054
                          A1        A2        A3        A4        A5
           A1           0.23692
           A2          -0.01126   0.15285
           A3           0.01097   0.01165   0.15270
           A4           0.00681   0.00510  -0.00637   0.15668
           A5          -0.00777  -0.00581   0.00728   0.00378   0.15568
           A6           0.00096   0.00071  -0.00091  -0.00047   0.00053
           D1          -0.00881  -0.00173   0.01247   0.00284  -0.00322
           D2          -0.01044  -0.00216   0.01468   0.00340  -0.00386
           D3           0.00913   0.00188  -0.01284  -0.00297   0.00337
           D4           0.00750   0.00145  -0.01063  -0.00241   0.00274
                          A6        D1        D2        D3        D4
           A6           0.15993
           D1           0.00038   0.02817
           D2           0.00046   0.00872   0.03064
           D3          -0.00040  -0.00763  -0.00879   0.02830
           D4          -0.00032  -0.00649  -0.00747   0.00654   0.02616
     Eigenvalues ---    0.02059   0.02060   0.03727   0.13296   0.16000
     Eigenvalues ---    0.16040   0.21670   0.30442   0.43820   0.44550
     Eigenvalues ---    0.49350   0.882261000.000001000.000001000.00000
 En-DIIS/RFO-DIIS IScMMF=        0 using points:     2    1
 RFO step:  Lambda= 0.00000000D+00.
 DIIS coeffs:      0.74752      0.25248
 Iteration  1 RMS(Cart)=  0.00019150 RMS(Int)=  0.00000008
 Iteration  2 RMS(Cart)=  0.00000006 RMS(Int)=  0.00000006
 Variable       Old X    -DE/DX   Delta X   Delta X   Delta X     New X
                                  (DIIS)     (GDIIS)  (Total)
    R1        2.59291  -0.00002   0.00002  -0.00008  -0.00007   2.59284
    R2        2.32630  -0.00001   0.00002  -0.00007  -0.00005   2.32625
    R3        2.11268   0.00001  -0.00004   0.00014   0.00010   2.11279
    R4        1.92878   0.00000  -0.00001   0.00005   0.00004   1.92881
    R5        1.92519   0.00000   0.00000  -0.00001  -0.00001   1.92518
    A1        2.17967   0.00000  -0.00005   0.00016   0.00011   2.17978
    A2        1.95164   0.00000  -0.00004   0.00015   0.00011   1.95175
    A3        2.15187   0.00000   0.00008  -0.00030  -0.00022   2.15165
    A4        2.08148   0.00000   0.00003  -0.00012  -0.00009   2.08139
    A5        2.12269   0.00000  -0.00003   0.00014   0.00011   2.12279
    A6        2.07902   0.00000   0.00000  -0.00002  -0.00001   2.07900
    D1       -0.00060   0.00002   0.00008   0.00039   0.00048  -0.00012
    D2       -3.14144   0.00002   0.00009   0.00049   0.00058  -3.14086
    D3        3.14153  -0.00002  -0.00008  -0.00042  -0.00050   3.14103
    D4        0.00069  -0.00002  -0.00007  -0.00033  -0.00040   0.00029
         Item               Value     Threshold  Converged?
 Maximum Force            0.000022     0.000002     NO 
 RMS     Force            0.000011     0.000001     NO 
 Maximum Displacement     0.000549     0.000006     NO 
 RMS     Displacement     0.000191     0.000004     NO 
 Predicted change in Energy=-2.071691D-08
 GradGradGradGradGradGradGradGradGradGradGradGradGradGradGradGradGradGrad

                          Input orientation:                          
 ---------------------------------------------------------------------
 Center     Atomic      Atomic             Coordinates (Angstroms)
 Number     Number       Type             X           Y           Z
 ---------------------------------------------------------------------
      1          6           0       -0.160670    0.392608   -0.000137
      2          7           0        1.094615   -0.161324   -0.000115
      3          8           0       -1.212541   -0.246860    0.000076
      4          1           0        1.191446   -1.177404    0.000198
      5          1           0        1.933578    0.416615    0.000333
      6          1           0       -0.121968    1.509976    0.000084
 ---------------------------------------------------------------------
                    Distance matrix (angstroms):
                    1          2          3          4          5
     1  C    0.000000
     2  N    1.372072   0.000000
     3  O    1.230996   2.308741   0.000000
     4  H    2.071993   1.020684   2.577803   0.000000
     5  H    2.094386   1.018761   3.215317   1.758311   0.000000
     6  H    1.118038   2.067200   2.067806   2.991165   2.328241
                    6
     6  H    0.000000
 Stoichiometry    CH3NO
 Framework group  C1[X(CH3NO)]
 Deg. of freedom    12
 Full point group                 C1      NOp   1
 Largest Abelian subgroup         C1      NOp   1
 Largest concise Abelian subgroup C1      NOp   1
                         Standard orientation:                         
 ---------------------------------------------------------------------
 Center     Atomic      Atomic             Coordinates (Angstroms)
 Number     Number       Type             X           Y           Z
 ---------------------------------------------------------------------
      1          6           0       -0.160740    0.392568   -0.000121
      2          7           0        1.094584   -0.161276   -0.000098
      3          8           0       -1.212566   -0.246973    0.000093
      4          1           0        1.191486   -1.177350    0.000215
      5          1           0        1.933507    0.416722    0.000350
      6          1           0       -0.122115    1.509939    0.000101
 ---------------------------------------------------------------------
 Rotational constants (GHZ):     71.8573828     11.0741123      9.5953503
 Basis read from rwf:  (5D, 7F)
 There are    48 symmetry adapted basis functions of A   symmetry.
 Integral buffers will be    131072 words long.
 Raffenetti 2 integral format.
 Two-electron integral symmetry is turned on.
    48 basis functions,   105 primitive gaussians,    51 cartesian basis functions
    12 alpha electrons       12 beta electrons
       nuclear repulsion energy        70.3247780375 Hartrees.
 NAtoms=    6 NActive=    6 NUniq=    6 SFac= 7.50D-01 NAtFMM=   80 NAOKFM=F Big=F
 Density basis read from rwf:  (5D, 7F)
   255 Density fitting functions
 There are   255 symmetry adapted density basis functions of A   symmetry.
 One-electron integrals computed using PRISM.
 NBasis=    48 RedAO= T  NBF=    48
 NBsUse=    48 1.00D-06 NBFU=    48
 NBasis=       48 NBas6D=       51 NTT=        1176   NTT6D=     1326
 NDBShl=       51 NDBF=        255 NDBF6D=      294  NNucDB=        0
 IDenFi=        2 ISolve=        0 FullAP=F BlkAPC=T NucTyp=        0
 TolInv= 1.00D-05 TolIt=  1.00D-10 IR12=0.
 Petite list used in FoFDir.
 MinBra= 0 MaxBra= 3 Meth= 1.
 IRaf=       0 NMat=   1 IRICut=       1 DoRegI=T DoRafI=F ISym2E= 1 JSym2E=1.
  NDBF=   255  NBFD=   255
 NRank=   255 NBFDU=   255
 S*AI*S=  4.91285983259    
 Initial guess read from the read-write file.
 B after Tr=     0.000000    0.000000    0.000000
         Rot=    1.000000    0.000000    0.000000    0.000000 Ang=   0.00 deg.
 Initial guess orbital symmetries:
       Occupied  (A) (A) (A) (A) (A) (A) (A) (A) (A) (A) (A) (A)
       Virtual   (A) (A) (A) (A) (A) (A) (A) (A) (A) (A) (A) (A)
                 (A) (A) (A) (A) (A) (A) (A) (A) (A) (A) (A) (A)
                 (A) (A) (A) (A) (A) (A) (A) (A) (A) (A) (A) (A)
 Requested convergence on RMS density matrix=1.00D-08 within 128 cycles.
 Requested convergence on MAX density matrix=1.00D-06.
 Requested convergence on             energy=1.00D-06.
 No special actions if energy rises.
 FoFCou: FMM=F IPFlag=           0 FMFlag=      100000 FMFlg1=           0
         NFxFlg=           0 DoJE=T BraDBF=T KetDBF=F FulRan=T
         Omega=  0.000000  0.000000  1.000000  0.000000  0.000000 ICntrl=     500 IOpCl=  0
         NMat0=    1 NMatS0=    1 NMatT0=    0 NMatD0=    1 NMtDS0=    0 NMtDT0=    0
         I1Cent=           5 NGrid=           0.
 Symmetry not used in FoFCou.
 SCF Done:  E(RPBE-PBE) =  -169.729349871     A.U. after    7 cycles
             Convg  =    0.1568D-08             -V/T =  2.0130
 Calling FoFJK, ICntrl=      2527 FMM=F ISym2X=0 I1Cent= 4 IOpClX= 0 NMat=1 NMatS=1 NMatT=0.
 ***** Axes restored to original set *****
 -------------------------------------------------------------------
 Center     Atomic                   Forces (Hartrees/Bohr)
 Number     Number              X              Y              Z
 -------------------------------------------------------------------
      1        6           0.000001739    0.000079518    0.000059307
      2        7          -0.000000493   -0.000029793   -0.000013475
      3        8          -0.000018262   -0.000041837   -0.000023110
      4        1           0.000001822    0.000012083    0.000000161
      5        1          -0.000003906    0.000002719   -0.000003269
      6        1           0.000019101   -0.000022690   -0.000019615
 -------------------------------------------------------------------
 Cartesian Forces:  Max     0.000079518 RMS     0.000028846

 GradGradGradGradGradGradGradGradGradGradGradGradGradGradGradGradGradGrad
 Berny optimization.
 Using GEDIIS/GDIIS optimizer.
 Internal  Forces:  Max     0.000037468 RMS     0.000019813
 Search for a local minimum.
 Step number   3 out of a maximum of  100
 All quantities printed in internal units (Hartrees-Bohrs-Radians)
 Mixed Optimization -- En-DIIS/RFO-DIIS
 Swaping is turned off.
 Update second derivatives using D2CorX and points    1    2    3
 DE=  8.73D-09 DEPred=-2.07D-08 R=-4.21D-01
 Trust test=-4.21D-01 RLast= 1.04D-03 DXMaxT set to 1.50D-01
 The second derivative matrix:
                          R1        R2        R3        R4        R5
           R1           0.47888
           R2          -0.03366   0.89168
           R3           0.02496   0.01519   0.30403
           R4           0.01243   0.00671  -0.00634   0.43948
           R5          -0.00228  -0.00466   0.00318   0.00164   0.44528
           A1           0.02167   0.00779  -0.00875  -0.00375   0.00312
           A2           0.01518   0.01711  -0.01298  -0.00641   0.00142
           A3          -0.02471  -0.00170   0.00575   0.00195  -0.00403
           A4          -0.01165  -0.00930   0.00770   0.00367  -0.00135
           A5           0.01328   0.01066  -0.00882  -0.00420   0.00153
           A6          -0.00164  -0.00137   0.00112   0.00054  -0.00019
           D1          -0.00299  -0.00448   0.00282   0.00138  -0.00041
           D2          -0.00285  -0.00406   0.00249   0.00121  -0.00044
           D3           0.00253   0.00365  -0.00224  -0.00109   0.00039
           D4           0.00267   0.00407  -0.00257  -0.00127   0.00036
                          A1        A2        A3        A4        A5
           A1           0.24603
           A2          -0.01109   0.15134
           A3          -0.00100   0.01169   0.16838
           A4           0.00563   0.00621  -0.00502   0.15599
           A5          -0.00646  -0.00709   0.00578   0.00459   0.15476
           A6           0.00083   0.00088  -0.00077  -0.00058   0.00066
           D1           0.00215   0.00168  -0.00250  -0.00097   0.00111
           D2           0.00175   0.00157  -0.00196  -0.00080   0.00091
           D3          -0.00160  -0.00140   0.00180   0.00073  -0.00082
           D4          -0.00199  -0.00151   0.00233   0.00090  -0.00102
                          A6        D1        D2        D3        D4
           A6           0.15992
           D1          -0.00013   0.03460
           D2          -0.00011   0.01599   0.03886
           D3           0.00010  -0.01402  -0.01601   0.03465
           D4           0.00012  -0.01203  -0.01374   0.01205   0.03094
     Eigenvalues ---    0.02058   0.02060   0.07589   0.13093   0.16000
     Eigenvalues ---    0.16133   0.22798   0.30315   0.43723   0.44574
     Eigenvalues ---    0.48721   0.895241000.000001000.000001000.00000
 En-DIIS/RFO-DIIS IScMMF=        0 using points:     3    2    1
 RFO step:  Lambda=-1.37931282D-08.
 DIIS coeffs:      0.38447      0.46513      0.15040
 Iteration  1 RMS(Cart)=  0.00011264 RMS(Int)=  0.00000003
 Iteration  2 RMS(Cart)=  0.00000002 RMS(Int)=  0.00000001
 Variable       Old X    -DE/DX   Delta X   Delta X   Delta X     New X
                                  (DIIS)     (GDIIS)  (Total)
    R1        2.59284   0.00000   0.00005  -0.00002   0.00003   2.59287
    R2        2.32625   0.00004   0.00004   0.00000   0.00004   2.32629
    R3        2.11279  -0.00002  -0.00009   0.00001  -0.00008   2.11271
    R4        1.92881  -0.00001  -0.00003   0.00000  -0.00003   1.92878
    R5        1.92518   0.00000   0.00000   0.00000   0.00000   1.92518
    A1        2.17978  -0.00003  -0.00009  -0.00002  -0.00012   2.17966
    A2        1.95175  -0.00001  -0.00009   0.00001  -0.00008   1.95167
    A3        2.15165   0.00003   0.00019   0.00001   0.00020   2.15185
    A4        2.08139   0.00001   0.00008  -0.00001   0.00006   2.08145
    A5        2.12279  -0.00001  -0.00009   0.00002  -0.00007   2.12272
    A6        2.07900   0.00000   0.00001   0.00000   0.00001   2.07901
    D1       -0.00012  -0.00002  -0.00024  -0.00001  -0.00026  -0.00037
    D2       -3.14086  -0.00002  -0.00030   0.00001  -0.00029  -3.14116
    D3        3.14103   0.00002   0.00026  -0.00001   0.00026   3.14129
    D4        0.00029   0.00002   0.00021   0.00001   0.00022   0.00051
         Item               Value     Threshold  Converged?
 Maximum Force            0.000037     0.000002     NO 
 RMS     Force            0.000020     0.000001     NO 
 Maximum Displacement     0.000286     0.000006     NO 
 RMS     Displacement     0.000113     0.000004     NO 
 Predicted change in Energy=-1.846203D-08
 GradGradGradGradGradGradGradGradGradGradGradGradGradGradGradGradGradGrad

                          Input orientation:                          
 ---------------------------------------------------------------------
 Center     Atomic      Atomic             Coordinates (Angstroms)
 Number     Number       Type             X           Y           Z
 ---------------------------------------------------------------------
      1          6           0       -0.160695    0.392647    0.000014
      2          7           0        1.094585   -0.161331   -0.000083
      3          8           0       -1.212531   -0.246921    0.000013
      4          1           0        1.191445   -1.177393    0.000170
      5          1           0        1.933526    0.416640    0.000302
      6          1           0       -0.121870    1.509969    0.000024
 ---------------------------------------------------------------------
                    Distance matrix (angstroms):
                    1          2          3          4          5
     1  C    0.000000
     2  N    1.372086   0.000000
     3  O    1.231018   2.308704   0.000000
     4  H    2.072030   1.020668   2.577766   0.000000
     5  H    2.094359   1.018761   3.215275   1.758302   0.000000
     6  H    1.117996   2.067125   2.067899   2.991105   2.328094
                    6
     6  H    0.000000
 Stoichiometry    CH3NO
 Framework group  C1[X(CH3NO)]
 Deg. of freedom    12
 Full point group                 C1      NOp   1
 Largest Abelian subgroup         C1      NOp   1
 Largest concise Abelian subgroup C1      NOp   1
                         Standard orientation:                         
 ---------------------------------------------------------------------
 Center     Atomic      Atomic             Coordinates (Angstroms)
 Number     Number       Type             X           Y           Z
 ---------------------------------------------------------------------
      1          6           0       -0.160742    0.392624    0.000010
      2          7           0        1.094559   -0.161307   -0.000087
      3          8           0       -1.212554   -0.246984    0.000009
      4          1           0        1.191457   -1.177365    0.000166
      5          1           0        1.933478    0.416695    0.000298
      6          1           0       -0.121959    1.509947    0.000020
 ---------------------------------------------------------------------
 Rotational constants (GHZ):     71.8492485     11.0744634      9.5954687
 Basis read from rwf:  (5D, 7F)
 There are    48 symmetry adapted basis functions of A   symmetry.
 Integral buffers will be    131072 words long.
 Raffenetti 2 integral format.
 Two-electron integral symmetry is turned on.
    48 basis functions,   105 primitive gaussians,    51 cartesian basis functions
    12 alpha electrons       12 beta electrons
       nuclear repulsion energy        70.3246288340 Hartrees.
 NAtoms=    6 NActive=    6 NUniq=    6 SFac= 7.50D-01 NAtFMM=   80 NAOKFM=F Big=F
 Density basis read from rwf:  (5D, 7F)
   255 Density fitting functions
 There are   255 symmetry adapted density basis functions of A   symmetry.
 One-electron integrals computed using PRISM.
 NBasis=    48 RedAO= T  NBF=    48
 NBsUse=    48 1.00D-06 NBFU=    48
 NBasis=       48 NBas6D=       51 NTT=        1176   NTT6D=     1326
 NDBShl=       51 NDBF=        255 NDBF6D=      294  NNucDB=        0
 IDenFi=        2 ISolve=        0 FullAP=F BlkAPC=T NucTyp=        0
 TolInv= 1.00D-05 TolIt=  1.00D-10 IR12=0.
 Petite list used in FoFDir.
 MinBra= 0 MaxBra= 3 Meth= 1.
 IRaf=       0 NMat=   1 IRICut=       1 DoRegI=T DoRafI=F ISym2E= 1 JSym2E=1.
  NDBF=   255  NBFD=   255
 NRank=   255 NBFDU=   255
 S*AI*S=  4.91284725495    
 Initial guess read from the read-write file.
 B after Tr=     0.000000    0.000000    0.000000
         Rot=    1.000000    0.000000    0.000000    0.000000 Ang=   0.00 deg.
 Initial guess orbital symmetries:
       Occupied  (A) (A) (A) (A) (A) (A) (A) (A) (A) (A) (A) (A)
       Virtual   (A) (A) (A) (A) (A) (A) (A) (A) (A) (A) (A) (A)
                 (A) (A) (A) (A) (A) (A) (A) (A) (A) (A) (A) (A)
                 (A) (A) (A) (A) (A) (A) (A) (A) (A) (A) (A) (A)
 Requested convergence on RMS density matrix=1.00D-08 within 128 cycles.
 Requested convergence on MAX density matrix=1.00D-06.
 Requested convergence on             energy=1.00D-06.
 No special actions if energy rises.
 FoFCou: FMM=F IPFlag=           0 FMFlag=      100000 FMFlg1=           0
         NFxFlg=           0 DoJE=T BraDBF=T KetDBF=F FulRan=T
         Omega=  0.000000  0.000000  1.000000  0.000000  0.000000 ICntrl=     500 IOpCl=  0
         NMat0=    1 NMatS0=    1 NMatT0=    0 NMatD0=    1 NMtDS0=    0 NMtDT0=    0
         I1Cent=           5 NGrid=           0.
 Symmetry not used in FoFCou.
 SCF Done:  E(RPBE-PBE) =  -169.729349890     A.U. after    7 cycles
             Convg  =    0.3319D-08             -V/T =  2.0130
 Calling FoFJK, ICntrl=      2527 FMM=F ISym2X=0 I1Cent= 4 IOpClX= 0 NMat=1 NMatS=1 NMatT=0.
 ***** Axes restored to original set *****
 -------------------------------------------------------------------
 Center     Atomic                   Forces (Hartrees/Bohr)
 Number     Number              X              Y              Z
 -------------------------------------------------------------------
      1        6           0.000003516    0.000002467    0.000000030
      2        7          -0.000000758    0.000000906   -0.000000685
      3        8          -0.000003182   -0.000002014    0.000000101
      4        1          -0.000000807    0.000000114    0.000000217
      5        1           0.000000733   -0.000000795    0.000000322
      6        1           0.000000497   -0.000000678    0.000000015
 -------------------------------------------------------------------
 Cartesian Forces:  Max     0.000003516 RMS     0.000001438

 GradGradGradGradGradGradGradGradGradGradGradGradGradGradGradGradGradGrad
 Berny optimization.
 Using GEDIIS/GDIIS optimizer.
 Internal  Forces:  Max     0.000003899 RMS     0.000001163
 Search for a local minimum.
 Step number   4 out of a maximum of  100
 All quantities printed in internal units (Hartrees-Bohrs-Radians)
 Mixed Optimization -- En-DIIS/RFO-DIIS
 Swaping is turned off.
 Update second derivatives using D2CorX and points    1    2    3    4
 DE= -1.86D-08 DEPred=-1.85D-08 R= 1.01D+00
 Trust test= 1.01D+00 RLast= 5.85D-04 DXMaxT set to 1.50D-01
 The second derivative matrix:
                          R1        R2        R3        R4        R5
           R1           0.48282
           R2          -0.01747   0.89465
           R3           0.01619   0.00896   0.30992
           R4           0.00798   0.00393  -0.00347   0.44089
           R5          -0.00188  -0.00286   0.00241   0.00128   0.44542
           A1           0.01225   0.00841  -0.00549  -0.00222   0.00245
           A2           0.01122   0.01297  -0.00975  -0.00482   0.00105
           A3          -0.01460   0.00259  -0.00024  -0.00102  -0.00342
           A4          -0.00967  -0.00392   0.00415   0.00181  -0.00137
           A5           0.01106   0.00448  -0.00475  -0.00207   0.00157
           A6          -0.00140  -0.00056   0.00060   0.00026  -0.00020
           D1          -0.00072   0.00085  -0.00001   0.00003   0.00002
           D2           0.00026   0.00109  -0.00035  -0.00011   0.00016
           D3          -0.00014  -0.00095   0.00028   0.00009  -0.00013
           D4           0.00084  -0.00071  -0.00006  -0.00005   0.00002
                          A1        A2        A3        A4        A5
           A1           0.24564
           A2          -0.00898   0.15294
           A3          -0.00419   0.00824   0.17497
           A4           0.00168   0.00461  -0.00035   0.15742
           A5          -0.00191  -0.00526   0.00043   0.00295   0.15661
           A6           0.00023   0.00065  -0.00007  -0.00038   0.00044
           D1          -0.00034   0.00002  -0.00022  -0.00045   0.00052
           D2          -0.00022  -0.00022  -0.00011  -0.00021   0.00024
           D3           0.00021   0.00018   0.00011   0.00021  -0.00024
           D4           0.00034  -0.00006   0.00022   0.00045  -0.00052
                          A6        D1        D2        D3        D4
           A6           0.15994
           D1          -0.00007   0.03530
           D2          -0.00004   0.01699   0.04019
           D3           0.00003  -0.01488  -0.01716   0.03564
           D4           0.00007  -0.01258  -0.01456   0.01275   0.03138
     Eigenvalues ---    0.02054   0.02060   0.08073   0.14685   0.16000
     Eigenvalues ---    0.16015   0.22945   0.30893   0.43951   0.44582
     Eigenvalues ---    0.48700   0.895641000.000001000.000001000.00000
 En-DIIS/RFO-DIIS IScMMF=        0 using points:     4    3    2    1
 RFO step:  Lambda= 0.00000000D+00.
 DIIS coeffs:      1.07555     -0.03089     -0.03890     -0.00576
 Iteration  1 RMS(Cart)=  0.00000612 RMS(Int)=  0.00000000
 Iteration  2 RMS(Cart)=  0.00000000 RMS(Int)=  0.00000000
 Variable       Old X    -DE/DX   Delta X   Delta X   Delta X     New X
                                  (DIIS)     (GDIIS)  (Total)
    R1        2.59287   0.00000   0.00000   0.00000   0.00000   2.59287
    R2        2.32629   0.00000   0.00000   0.00000   0.00000   2.32629
    R3        2.11271   0.00000   0.00000   0.00000   0.00000   2.11270
    R4        1.92878   0.00000   0.00000   0.00000   0.00000   1.92878
    R5        1.92518   0.00000   0.00000   0.00000   0.00000   1.92518
    A1        2.17966   0.00000   0.00000   0.00000   0.00000   2.17966
    A2        1.95167   0.00000   0.00000   0.00000   0.00000   1.95167
    A3        2.15185   0.00000   0.00000   0.00000   0.00000   2.15185
    A4        2.08145   0.00000   0.00000  -0.00001  -0.00001   2.08144
    A5        2.12272   0.00000   0.00000   0.00001   0.00001   2.12273
    A6        2.07901   0.00000   0.00000   0.00000   0.00000   2.07901
    D1       -0.00037   0.00000   0.00000  -0.00001  -0.00001  -0.00038
    D2       -3.14116   0.00000   0.00000   0.00001   0.00001  -3.14114
    D3        3.14129   0.00000   0.00000  -0.00001  -0.00001   3.14128
    D4        0.00051   0.00000   0.00000   0.00001   0.00001   0.00052
         Item               Value     Threshold  Converged?
 Maximum Force            0.000004     0.000002     NO 
 RMS     Force            0.000001     0.000001     NO 
 Maximum Displacement     0.000011     0.000006     NO 
 RMS     Displacement     0.000006     0.000004     NO 
 Predicted change in Energy=-2.510714D-11
 GradGradGradGradGradGradGradGradGradGradGradGradGradGradGradGradGradGrad

                          Input orientation:                          
 ---------------------------------------------------------------------
 Center     Atomic      Atomic             Coordinates (Angstroms)
 Number     Number       Type             X           Y           Z
 ---------------------------------------------------------------------
      1          6           0       -0.160695    0.392648    0.000013
      2          7           0        1.094586   -0.161328   -0.000089
      3          8           0       -1.212530   -0.246925    0.000015
      4          1           0        1.191439   -1.177390    0.000171
      5          1           0        1.933531    0.416637    0.000306
      6          1           0       -0.121871    1.509969    0.000024
 ---------------------------------------------------------------------
                    Distance matrix (angstroms):
                    1          2          3          4          5
     1  C    0.000000
     2  N    1.372085   0.000000
     3  O    1.231021   2.308703   0.000000
     4  H    2.072024   1.020668   2.577757   0.000000
     5  H    2.094363   1.018761   3.215279   1.758301   0.000000
     6  H    1.117995   2.067123   2.067901   2.991100   2.328100
                    6
     6  H    0.000000
 Stoichiometry    CH3NO
 Framework group  C1[X(CH3NO)]
 Deg. of freedom    12
 Full point group                 C1      NOp   1
 Largest Abelian subgroup         C1      NOp   1
 Largest concise Abelian subgroup C1      NOp   1
                         Standard orientation:                         
 ---------------------------------------------------------------------
 Center     Atomic      Atomic             Coordinates (Angstroms)
 Number     Number       Type             X           Y           Z
 ---------------------------------------------------------------------
      1          6           0       -0.160741    0.392626    0.000010
      2          7           0        1.094558   -0.161308   -0.000092
      3          8           0       -1.212555   -0.246984    0.000012
      4          1           0        1.191446   -1.177366    0.000168
      5          1           0        1.933484    0.416686    0.000302
      6          1           0       -0.121955    1.509948    0.000021
 ---------------------------------------------------------------------
 Rotational constants (GHZ):     71.8491030     11.0744669      9.5954687
 Basis read from rwf:  (5D, 7F)
 There are    48 symmetry adapted basis functions of A   symmetry.
 Integral buffers will be    131072 words long.
 Raffenetti 2 integral format.
 Two-electron integral symmetry is turned on.
    48 basis functions,   105 primitive gaussians,    51 cartesian basis functions
    12 alpha electrons       12 beta electrons
       nuclear repulsion energy        70.3246095522 Hartrees.
 NAtoms=    6 NActive=    6 NUniq=    6 SFac= 7.50D-01 NAtFMM=   80 NAOKFM=F Big=F
 Density basis read from rwf:  (5D, 7F)
   255 Density fitting functions
 There are   255 symmetry adapted density basis functions of A   symmetry.
 One-electron integrals computed using PRISM.
 NBasis=    48 RedAO= T  NBF=    48
 NBsUse=    48 1.00D-06 NBFU=    48
 NBasis=       48 NBas6D=       51 NTT=        1176   NTT6D=     1326
 NDBShl=       51 NDBF=        255 NDBF6D=      294  NNucDB=        0
 IDenFi=        2 ISolve=        0 FullAP=F BlkAPC=T NucTyp=        0
 TolInv= 1.00D-05 TolIt=  1.00D-10 IR12=0.
 Petite list used in FoFDir.
 MinBra= 0 MaxBra= 3 Meth= 1.
 IRaf=       0 NMat=   1 IRICut=       1 DoRegI=T DoRafI=F ISym2E= 1 JSym2E=1.
  NDBF=   255  NBFD=   255
 NRank=   255 NBFDU=   255
 S*AI*S=  4.91284670824    
 Initial guess read from the read-write file.
 B after Tr=     0.000000    0.000000    0.000000
         Rot=    1.000000    0.000000    0.000000    0.000000 Ang=   0.00 deg.
 Initial guess orbital symmetries:
       Occupied  (A) (A) (A) (A) (A) (A) (A) (A) (A) (A) (A) (A)
       Virtual   (A) (A) (A) (A) (A) (A) (A) (A) (A) (A) (A) (A)
                 (A) (A) (A) (A) (A) (A) (A) (A) (A) (A) (A) (A)
                 (A) (A) (A) (A) (A) (A) (A) (A) (A) (A) (A) (A)
 Requested convergence on RMS density matrix=1.00D-08 within 128 cycles.
 Requested convergence on MAX density matrix=1.00D-06.
 Requested convergence on             energy=1.00D-06.
 No special actions if energy rises.
 FoFCou: FMM=F IPFlag=           0 FMFlag=      100000 FMFlg1=           0
         NFxFlg=           0 DoJE=T BraDBF=T KetDBF=F FulRan=T
         Omega=  0.000000  0.000000  1.000000  0.000000  0.000000 ICntrl=     500 IOpCl=  0
         NMat0=    1 NMatS0=    1 NMatT0=    0 NMatD0=    1 NMtDS0=    0 NMtDT0=    0
         I1Cent=           5 NGrid=           0.
 Symmetry not used in FoFCou.
 SCF Done:  E(RPBE-PBE) =  -169.729349890     A.U. after    5 cycles
             Convg  =    0.2664D-08             -V/T =  2.0130
 Calling FoFJK, ICntrl=      2527 FMM=F ISym2X=0 I1Cent= 4 IOpClX= 0 NMat=1 NMatS=1 NMatT=0.
 ***** Axes restored to original set *****
 -------------------------------------------------------------------
 Center     Atomic                   Forces (Hartrees/Bohr)
 Number     Number              X              Y              Z
 -------------------------------------------------------------------
      1        6           0.000000958    0.000000796    0.000000213
      2        7          -0.000000310    0.000000226   -0.000000744
      3        8          -0.000000506   -0.000000103    0.000000032
      4        1          -0.000000444   -0.000000314    0.000000223
      5        1           0.000000155   -0.000000564    0.000000320
      6        1           0.000000147   -0.000000041   -0.000000045
 -------------------------------------------------------------------
 Cartesian Forces:  Max     0.000000958 RMS     0.000000433

 GradGradGradGradGradGradGradGradGradGradGradGradGradGradGradGradGradGrad
 Berny optimization.
 Using GEDIIS/GDIIS optimizer.
 Internal  Forces:  Max     0.000000619 RMS     0.000000301
 Search for a local minimum.
 Step number   5 out of a maximum of  100
 All quantities printed in internal units (Hartrees-Bohrs-Radians)
 Mixed Optimization -- En-DIIS/RFO-DIIS
 Swaping is turned off.
 Update second derivatives using D2CorX and points    1    2    3    4    5
 DE= -5.51D-11 DEPred=-2.51D-11 R= 2.19D+00
 Trust test= 2.19D+00 RLast= 2.67D-05 DXMaxT set to 1.50D-01
 The second derivative matrix:
                          R1        R2        R3        R4        R5
           R1           0.47844
           R2          -0.01063   0.92731
           R3           0.01420   0.00726   0.30918
           R4           0.01097  -0.01736   0.00017   0.44534
           R5          -0.00290   0.00858   0.00059  -0.00156   0.44724
           A1           0.00346   0.04112  -0.01223  -0.00408   0.00442
           A2           0.01748  -0.02641  -0.00195   0.00052  -0.00304
           A3          -0.01741   0.01497  -0.00174  -0.00474  -0.00156
           A4          -0.01498   0.00361   0.00157   0.00535  -0.00288
           A5           0.01713  -0.00366  -0.00187  -0.00627   0.00338
           A6          -0.00219   0.00024   0.00026   0.00091  -0.00049
           D1          -0.00426   0.01715  -0.00329  -0.00167   0.00135
           D2           0.00463  -0.01752   0.00357   0.00126  -0.00112
           D3          -0.00321   0.01199  -0.00246  -0.00082   0.00074
           D4           0.00568  -0.02267   0.00440   0.00211  -0.00173
                          A1        A2        A3        A4        A5
           A1           0.23803
           A2          -0.00700   0.15670
           A3          -0.00144   0.00306   0.17831
           A4          -0.00834   0.01357  -0.00162   0.15152
           A5           0.00971  -0.01573   0.00199   0.00967   0.14896
           A6          -0.00139   0.00217  -0.00035  -0.00125   0.00142
           D1          -0.00241  -0.00030   0.00191  -0.00467   0.00544
           D2           0.00326  -0.00102  -0.00219   0.00512  -0.00594
           D3          -0.00231   0.00083   0.00153  -0.00354   0.00411
           D4           0.00336   0.00011  -0.00257   0.00625  -0.00727
                          A6        D1        D2        D3        D4
           A6           0.15982
           D1          -0.00077   0.03496
           D2           0.00083   0.01792   0.03850
           D3          -0.00058  -0.01557  -0.01593   0.03474
           D4           0.00103  -0.01201  -0.01595   0.01378   0.03044
     Eigenvalues ---    0.01241   0.02060   0.08074   0.12706   0.16000
     Eigenvalues ---    0.17166   0.22177   0.30920   0.44229   0.44724
     Eigenvalues ---    0.48546   0.933041000.000001000.000001000.00000
 En-DIIS/RFO-DIIS IScMMF=        0 using points:     5    4    3    2    1
 RFO step:  Lambda= 0.00000000D+00.
 DIIS coeffs:      1.61213     -0.54904     -0.02312     -0.02857     -0.01140
 Iteration  1 RMS(Cart)=  0.00000852 RMS(Int)=  0.00000000
 Iteration  2 RMS(Cart)=  0.00000000 RMS(Int)=  0.00000000
 Variable       Old X    -DE/DX   Delta X   Delta X   Delta X     New X
                                  (DIIS)     (GDIIS)  (Total)
    R1        2.59287   0.00000   0.00000   0.00000   0.00000   2.59286
    R2        2.32629   0.00000   0.00000   0.00000   0.00000   2.32629
    R3        2.11270   0.00000   0.00000   0.00000   0.00000   2.11270
    R4        1.92878   0.00000   0.00000   0.00000   0.00000   1.92878
    R5        1.92518   0.00000   0.00000   0.00000   0.00000   1.92518
    A1        2.17966   0.00000   0.00000   0.00000   0.00000   2.17966
    A2        1.95167   0.00000   0.00000   0.00000   0.00000   1.95168
    A3        2.15185   0.00000   0.00000   0.00000   0.00000   2.15185
    A4        2.08144   0.00000  -0.00001   0.00000  -0.00001   2.08143
    A5        2.12273   0.00000   0.00001   0.00000   0.00001   2.12274
    A6        2.07901   0.00000   0.00000   0.00000   0.00000   2.07901
    D1       -0.00038   0.00000  -0.00001  -0.00001  -0.00002  -0.00040
    D2       -3.14114   0.00000   0.00001   0.00002   0.00002  -3.14112
    D3        3.14128   0.00000  -0.00001  -0.00001  -0.00002   3.14126
    D4        0.00052   0.00000   0.00001   0.00002   0.00003   0.00055
         Item               Value     Threshold  Converged?
 Maximum Force            0.000001     0.000002     YES
 RMS     Force            0.000000     0.000001     YES
 Maximum Displacement     0.000021     0.000006     NO 
 RMS     Displacement     0.000009     0.000004     NO 
 Predicted change in Energy=-1.604343D-11
 GradGradGradGradGradGradGradGradGradGradGradGradGradGradGradGradGradGrad

                          Input orientation:                          
 ---------------------------------------------------------------------
 Center     Atomic      Atomic             Coordinates (Angstroms)
 Number     Number       Type             X           Y           Z
 ---------------------------------------------------------------------
      1          6           0       -0.160693    0.392650    0.000012
      2          7           0        1.094586   -0.161325   -0.000100
      3          8           0       -1.212527   -0.246929    0.000018
      4          1           0        1.191433   -1.177388    0.000174
      5          1           0        1.933536    0.416634    0.000312
      6          1           0       -0.121875    1.509970    0.000024
 ---------------------------------------------------------------------
                    Distance matrix (angstroms):
                    1          2          3          4          5
     1  C    0.000000
     2  N    1.372084   0.000000
     3  O    1.231022   2.308701   0.000000
     4  H    2.072020   1.020668   2.577747   0.000000
     5  H    2.094367   1.018761   3.215281   1.758301   0.000000
     6  H    1.117994   2.067125   2.067902   2.991098   2.328110
                    6
     6  H    0.000000
 Stoichiometry    CH3NO
 Framework group  C1[X(CH3NO)]
 Deg. of freedom    12
 Full point group                 C1      NOp   1
 Largest Abelian subgroup         C1      NOp   1
 Largest concise Abelian subgroup C1      NOp   1
                         Standard orientation:                         
 ---------------------------------------------------------------------
 Center     Atomic      Atomic             Coordinates (Angstroms)
 Number     Number       Type             X           Y           Z
 ---------------------------------------------------------------------
      1          6           0       -0.160740    0.392628    0.000011
      2          7           0        1.094557   -0.161308   -0.000101
      3          8           0       -1.212554   -0.246984    0.000017
      4          1           0        1.191436   -1.177367    0.000173
      5          1           0        1.933489    0.416678    0.000311
      6          1           0       -0.121956    1.509949    0.000022
 ---------------------------------------------------------------------
 Rotational constants (GHZ):     71.8488303     11.0744874      9.5954793
 Basis read from rwf:  (5D, 7F)
 There are    48 symmetry adapted basis functions of A   symmetry.
 Integral buffers will be    131072 words long.
 Raffenetti 2 integral format.
 Two-electron integral symmetry is turned on.
    48 basis functions,   105 primitive gaussians,    51 cartesian basis functions
    12 alpha electrons       12 beta electrons
       nuclear repulsion energy        70.3246148599 Hartrees.
 NAtoms=    6 NActive=    6 NUniq=    6 SFac= 7.50D-01 NAtFMM=   80 NAOKFM=F Big=F
 Density basis read from rwf:  (5D, 7F)
   255 Density fitting functions
 There are   255 symmetry adapted density basis functions of A   symmetry.
 One-electron integrals computed using PRISM.
 NBasis=    48 RedAO= T  NBF=    48
 NBsUse=    48 1.00D-06 NBFU=    48
 NBasis=       48 NBas6D=       51 NTT=        1176   NTT6D=     1326
 NDBShl=       51 NDBF=        255 NDBF6D=      294  NNucDB=        0
 IDenFi=        2 ISolve=        0 FullAP=F BlkAPC=T NucTyp=        0
 TolInv= 1.00D-05 TolIt=  1.00D-10 IR12=0.
 Petite list used in FoFDir.
 MinBra= 0 MaxBra= 3 Meth= 1.
 IRaf=       0 NMat=   1 IRICut=       1 DoRegI=T DoRafI=F ISym2E= 1 JSym2E=1.
  NDBF=   255  NBFD=   255
 NRank=   255 NBFDU=   255
 S*AI*S=  4.91284629722    
 Initial guess read from the read-write file.
 B after Tr=     0.000000    0.000000    0.000000
         Rot=    1.000000    0.000000    0.000000    0.000000 Ang=   0.00 deg.
 Initial guess orbital symmetries:
       Occupied  (A) (A) (A) (A) (A) (A) (A) (A) (A) (A) (A) (A)
       Virtual   (A) (A) (A) (A) (A) (A) (A) (A) (A) (A) (A) (A)
                 (A) (A) (A) (A) (A) (A) (A) (A) (A) (A) (A) (A)
                 (A) (A) (A) (A) (A) (A) (A) (A) (A) (A) (A) (A)
 Requested convergence on RMS density matrix=1.00D-08 within 128 cycles.
 Requested convergence on MAX density matrix=1.00D-06.
 Requested convergence on             energy=1.00D-06.
 No special actions if energy rises.
 FoFCou: FMM=F IPFlag=           0 FMFlag=      100000 FMFlg1=           0
         NFxFlg=           0 DoJE=T BraDBF=T KetDBF=F FulRan=T
         Omega=  0.000000  0.000000  1.000000  0.000000  0.000000 ICntrl=     500 IOpCl=  0
         NMat0=    1 NMatS0=    1 NMatT0=    0 NMatD0=    1 NMtDS0=    0 NMtDT0=    0
         I1Cent=           5 NGrid=           0.
 Symmetry not used in FoFCou.
 SCF Done:  E(RPBE-PBE) =  -169.729349890     A.U. after    5 cycles
             Convg  =    0.3167D-08             -V/T =  2.0130
 Calling FoFJK, ICntrl=      2527 FMM=F ISym2X=0 I1Cent= 4 IOpClX= 0 NMat=1 NMatS=1 NMatT=0.
 ***** Axes restored to original set *****
 -------------------------------------------------------------------
 Center     Atomic                   Forces (Hartrees/Bohr)
 Number     Number              X              Y              Z
 -------------------------------------------------------------------
      1        6          -0.000000980   -0.000000408    0.000000296
      2        7           0.000000290   -0.000000481   -0.000000798
      3        8           0.000000758    0.000001084    0.000000006
      4        1          -0.000000236   -0.000000241    0.000000235
      5        1          -0.000000098   -0.000000238    0.000000332
      6        1           0.000000266    0.000000284   -0.000000071
 -------------------------------------------------------------------
 Cartesian Forces:  Max     0.000001084 RMS     0.000000495

 GradGradGradGradGradGradGradGradGradGradGradGradGradGradGradGradGradGrad
 Berny optimization.
 Using GEDIIS/GDIIS optimizer.
 Internal  Forces:  Max     0.000001077 RMS     0.000000341
 Search for a local minimum.
 Step number   6 out of a maximum of  100
 All quantities printed in internal units (Hartrees-Bohrs-Radians)
 Mixed Optimization -- En-DIIS/RFO-DIIS
 Swaping is turned off.
 Update second derivatives using D2CorX and points    1    2    3    4    5
                                                      6
 DE= -3.40D-11 DEPred=-1.60D-11 R= 2.12D+00
 Trust test= 2.12D+00 RLast= 4.66D-05 DXMaxT set to 1.50D-01
 The second derivative matrix:
                          R1        R2        R3        R4        R5
           R1           0.50739
           R2          -0.09118   1.13332
           R3           0.02622  -0.02116   0.31336
           R4           0.01326  -0.01583  -0.00140   0.44329
           R5          -0.00717   0.01774   0.00003  -0.00118   0.44785
           A1           0.01741  -0.00273  -0.00348  -0.00390   0.00329
           A2           0.00683   0.01157  -0.01011  -0.00257  -0.00142
           A3          -0.02760   0.03220  -0.00432  -0.00184  -0.00235
           A4           0.00862  -0.06260   0.01109   0.00720  -0.00660
           A5          -0.01205   0.07848  -0.01387  -0.00851   0.00792
           A6           0.00333  -0.01556   0.00272   0.00130  -0.00130
           D1          -0.00922   0.02976  -0.00538  -0.00124   0.00176
           D2           0.00902  -0.02958   0.00557   0.00121  -0.00170
           D3          -0.00616   0.02022  -0.00383  -0.00082   0.00115
           D4           0.01208  -0.03912   0.00712   0.00162  -0.00230
                          A1        A2        A3        A4        A5
           A1           0.25083
           A2          -0.01647   0.15894
           A3          -0.01058   0.01246   0.17968
           A4           0.00281   0.00569  -0.00901   0.17081
           A5          -0.00461  -0.00580   0.01121  -0.01428   0.17868
           A6           0.00173   0.00014  -0.00218   0.00336  -0.00428
           D1          -0.00627   0.00259   0.00216  -0.00946   0.01114
           D2           0.00645  -0.00291  -0.00223   0.00964  -0.01123
           D3          -0.00442   0.00203   0.00153  -0.00661   0.00769
           D4           0.00829  -0.00347  -0.00286   0.01249  -0.01467
                          A6        D1        D2        D3        D4
           A6           0.16090
           D1          -0.00169   0.03427
           D2           0.00162   0.01884   0.03731
           D3          -0.00110  -0.01623  -0.01509   0.03415
           D4           0.00221  -0.01105  -0.01723   0.01468   0.02911
     Eigenvalues ---    0.00486   0.02060   0.08073   0.14847   0.16002
     Eigenvalues ---    0.18588   0.24473   0.31195   0.44138   0.44740
     Eigenvalues ---    0.50258   1.163931000.000001000.000001000.00000
 En-DIIS/RFO-DIIS IScMMF=        0 using points:     6    5    4    3    2
 RFO step:  Lambda= 0.00000000D+00.
 DIIS coeffs:      1.54720     -0.37079     -0.18654      0.00454      0.00559
 Iteration  1 RMS(Cart)=  0.00001098 RMS(Int)=  0.00000000
 Iteration  2 RMS(Cart)=  0.00000000 RMS(Int)=  0.00000000
 Variable       Old X    -DE/DX   Delta X   Delta X   Delta X     New X
                                  (DIIS)     (GDIIS)  (Total)
    R1        2.59286   0.00000   0.00000   0.00000   0.00000   2.59286
    R2        2.32629   0.00000   0.00000   0.00000   0.00000   2.32630
    R3        2.11270   0.00000   0.00000   0.00000   0.00000   2.11270
    R4        1.92878   0.00000   0.00000   0.00000   0.00000   1.92878
    R5        1.92518   0.00000   0.00000   0.00000   0.00000   1.92518
    A1        2.17966   0.00000   0.00000   0.00000   0.00000   2.17966
    A2        1.95168   0.00000   0.00000   0.00000   0.00000   1.95168
    A3        2.15185   0.00000   0.00000   0.00000   0.00000   2.15185
    A4        2.08143   0.00000   0.00000   0.00000  -0.00001   2.08143
    A5        2.12274   0.00000   0.00001   0.00000   0.00001   2.12275
    A6        2.07901   0.00000   0.00000   0.00000   0.00000   2.07901
    D1       -0.00040   0.00000  -0.00001  -0.00002  -0.00003  -0.00044
    D2       -3.14112   0.00000   0.00002   0.00002   0.00004  -3.14108
    D3        3.14126   0.00000  -0.00001  -0.00001  -0.00003   3.14124
    D4        0.00055   0.00000   0.00002   0.00002   0.00004   0.00059
         Item               Value     Threshold  Converged?
 Maximum Force            0.000001     0.000002     YES
 RMS     Force            0.000000     0.000001     YES
 Maximum Displacement     0.000032     0.000006     NO 
 RMS     Displacement     0.000011     0.000004     NO 
 Predicted change in Energy=-1.433775D-11
 GradGradGradGradGradGradGradGradGradGradGradGradGradGradGradGradGradGrad

                          Input orientation:                          
 ---------------------------------------------------------------------
 Center     Atomic      Atomic             Coordinates (Angstroms)
 Number     Number       Type             X           Y           Z
 ---------------------------------------------------------------------
      1          6           0       -0.160692    0.392651    0.000011
      2          7           0        1.094587   -0.161323   -0.000117
      3          8           0       -1.212525   -0.246932    0.000023
      4          1           0        1.191429   -1.177386    0.000177
      5          1           0        1.933540    0.416631    0.000323
      6          1           0       -0.121878    1.509970    0.000023
 ---------------------------------------------------------------------
                    Distance matrix (angstroms):
                    1          2          3          4          5
     1  C    0.000000
     2  N    1.372084   0.000000
     3  O    1.231023   2.308700   0.000000
     4  H    2.072016   1.020668   2.577740   0.000000
     5  H    2.094370   1.018761   3.215283   1.758301   0.000000
     6  H    1.117993   2.067125   2.067902   2.991097   2.328118
                    6
     6  H    0.000000
 Stoichiometry    CH3NO
 Framework group  C1[X(CH3NO)]
 Deg. of freedom    12
 Full point group                 C1      NOp   1
 Largest Abelian subgroup         C1      NOp   1
 Largest concise Abelian subgroup C1      NOp   1
                         Standard orientation:                         
 ---------------------------------------------------------------------
 Center     Atomic      Atomic             Coordinates (Angstroms)
 Number     Number       Type             X           Y           Z
 ---------------------------------------------------------------------
      1          6           0       -0.160739    0.392629    0.000013
      2          7           0        1.094556   -0.161308   -0.000115
      3          8           0       -1.212553   -0.246985    0.000025
      4          1           0        1.191429   -1.177368    0.000179
      5          1           0        1.933492    0.416672    0.000324
      6          1           0       -0.121957    1.509950    0.000025
 ---------------------------------------------------------------------
 Rotational constants (GHZ):     71.8486748     11.0744990      9.5954852
 Basis read from rwf:  (5D, 7F)
 There are    48 symmetry adapted basis functions of A   symmetry.
 Integral buffers will be    131072 words long.
 Raffenetti 2 integral format.
 Two-electron integral symmetry is turned on.
    48 basis functions,   105 primitive gaussians,    51 cartesian basis functions
    12 alpha electrons       12 beta electrons
       nuclear repulsion energy        70.3246162480 Hartrees.
 NAtoms=    6 NActive=    6 NUniq=    6 SFac= 7.50D-01 NAtFMM=   80 NAOKFM=F Big=F
 Density basis read from rwf:  (5D, 7F)
   255 Density fitting functions
 There are   255 symmetry adapted density basis functions of A   symmetry.
 One-electron integrals computed using PRISM.
 NBasis=    48 RedAO= T  NBF=    48
 NBsUse=    48 1.00D-06 NBFU=    48
 NBasis=       48 NBas6D=       51 NTT=        1176   NTT6D=     1326
 NDBShl=       51 NDBF=        255 NDBF6D=      294  NNucDB=        0
 IDenFi=        2 ISolve=        0 FullAP=F BlkAPC=T NucTyp=        0
 TolInv= 1.00D-05 TolIt=  1.00D-10 IR12=0.
 Petite list used in FoFDir.
 MinBra= 0 MaxBra= 3 Meth= 1.
 IRaf=       0 NMat=   1 IRICut=       1 DoRegI=T DoRafI=F ISym2E= 1 JSym2E=1.
  NDBF=   255  NBFD=   255
 NRank=   255 NBFDU=   255
 S*AI*S=  4.91284600036    
 Initial guess read from the read-write file.
 B after Tr=     0.000000    0.000000    0.000000
         Rot=    1.000000    0.000000    0.000000    0.000000 Ang=   0.00 deg.
 Initial guess orbital symmetries:
       Occupied  (A) (A) (A) (A) (A) (A) (A) (A) (A) (A) (A) (A)
       Virtual   (A) (A) (A) (A) (A) (A) (A) (A) (A) (A) (A) (A)
                 (A) (A) (A) (A) (A) (A) (A) (A) (A) (A) (A) (A)
                 (A) (A) (A) (A) (A) (A) (A) (A) (A) (A) (A) (A)
 Requested convergence on RMS density matrix=1.00D-08 within 128 cycles.
 Requested convergence on MAX density matrix=1.00D-06.
 Requested convergence on             energy=1.00D-06.
 No special actions if energy rises.
 FoFCou: FMM=F IPFlag=           0 FMFlag=      100000 FMFlg1=           0
         NFxFlg=           0 DoJE=T BraDBF=T KetDBF=F FulRan=T
         Omega=  0.000000  0.000000  1.000000  0.000000  0.000000 ICntrl=     500 IOpCl=  0
         NMat0=    1 NMatS0=    1 NMatT0=    0 NMatD0=    1 NMtDS0=    0 NMtDT0=    0
         I1Cent=           5 NGrid=           0.
 Symmetry not used in FoFCou.
 SCF Done:  E(RPBE-PBE) =  -169.729349890     A.U. after    5 cycles
[...]
 Raman Activ --     0.5038                 1.3409                 0.9949
 Depolar (P) --     0.5937                 0.6147                 0.7436
 Depolar (U) --     0.7451                 0.7614                 0.8529
  Atom  AN      X      Y      Z        X      Y      Z        X      Y      Z
     1   6     0.00   0.00  -0.02    -0.01   0.20  -0.02     0.00  -0.02  -0.10
     2   7    -0.01   0.00   0.13    -0.15  -0.02   0.01     0.02   0.02   0.05
     3   8     0.00   0.00  -0.01     0.18  -0.11   0.01    -0.02   0.01   0.06
     4   1     0.08  -0.04  -0.53    -0.75  -0.08  -0.12     0.03  -0.05  -0.76
     5   1     0.10   0.02  -0.82     0.16  -0.48   0.06    -0.02  -0.04   0.60
     6   1     0.01   0.00   0.02    -0.13   0.19  -0.05     0.01  -0.02  -0.21
                     4                      5                      6
                     A                      A                      A
 Frequencies --   977.4830              1017.5731              1236.3556
 Red. masses --     1.5418                 1.7143                 2.8215
 Frc consts  --     0.8680                 1.0458                 2.5411
 IR Inten    --     3.8515                 3.5255                85.0701
 Raman Activ --     1.7749                 7.0793                 4.7604
 Depolar (P) --     0.5853                 0.5034                 0.4220
 Depolar (U) --     0.7384                 0.6697                 0.5936
  Atom  AN      X      Y      Z        X      Y      Z        X      Y      Z
     1   6    -0.01   0.00   0.20    -0.04   0.00  -0.03    -0.19   0.26   0.00
     2   7     0.03   0.01  -0.03     0.18   0.05   0.00     0.12  -0.19   0.00
     3   8    -0.02   0.00  -0.05    -0.12  -0.02   0.01     0.00  -0.05   0.00
     4   1    -0.03  -0.01  -0.16    -0.43   0.00   0.09     0.82  -0.13  -0.04
     5   1     0.11  -0.10  -0.03     0.59  -0.52  -0.06    -0.02   0.03   0.04
     6   1    -0.05   0.00  -0.95    -0.32  -0.01   0.17    -0.29   0.27   0.02
                     7                      8                      9
                     A                      A                      A
 Frequencies --  1369.2349              1572.4635              1759.6716
 Red. masses --     1.2031                 1.2532                 7.0629
 Frc consts  --     1.3289                 1.8258                12.8854
 IR Inten    --     4.5121                57.9179               401.1703
 Raman Activ --    10.1286                 4.7532                 9.1483
 Depolar (P) --     0.4094                 0.6292                 0.3379
 Depolar (U) --     0.5809                 0.7724                 0.5051
  Atom  AN      X      Y      Z        X      Y      Z        X      Y      Z
     1   6     0.03  -0.06   0.00     0.01   0.05   0.01     0.55   0.23   0.00
     2   7    -0.01  -0.03   0.00     0.10  -0.06   0.00    -0.12  -0.01   0.00
     3   8     0.06   0.07   0.00    -0.04  -0.03   0.00    -0.31  -0.18   0.00
     4   1    -0.03  -0.03  -0.02    -0.64  -0.13  -0.07     0.43   0.06   0.02
     5   1    -0.12   0.11  -0.01    -0.37   0.63  -0.05    -0.07  -0.09   0.05
     6   1    -0.98  -0.06   0.00     0.04   0.06  -0.01    -0.48   0.25   0.00
                    10                     11                     12
                     A                      A                      A
 Frequencies --  2891.9020              3477.2046              3619.8722
 Red. masses --     1.0867                 1.0454                 1.1054
 Frc consts  --     5.3547                 7.4470                 8.5342
 IR Inten    --   111.6468                27.7664                37.8488
 Raman Activ --   122.4658               142.4345                66.2159
 Depolar (P) --     0.2967                 0.1229                 0.7228
 Depolar (U) --     0.4576                 0.2189                 0.8391
  Atom  AN      X      Y      Z        X      Y      Z        X      Y      Z
     1   6     0.00   0.08   0.00     0.00   0.00   0.00     0.00   0.00   0.00
     2   7     0.00   0.00   0.00     0.05  -0.03   0.01     0.04   0.08   0.00
     3   8     0.00   0.00   0.00     0.00   0.00   0.00     0.00   0.00   0.00
     4   1     0.00   0.01   0.00    -0.07   0.73  -0.06     0.07  -0.66   0.06
     5   1     0.00   0.02   0.00    -0.54  -0.38  -0.07    -0.60  -0.42  -0.09
     6   1     0.00  -1.00   0.00     0.00   0.00   0.00     0.00  -0.01   0.00

 -------------------
 - Thermochemistry -
 -------------------
 Temperature   298.150 Kelvin.  Pressure   1.00000 Atm.
 Atom     1 has atomic number  6 and mass  12.00000
 Atom     2 has atomic number  7 and mass  14.00307
 Atom     3 has atomic number  8 and mass  15.99491
 Atom     4 has atomic number  1 and mass   1.00783
 Atom     5 has atomic number  1 and mass   1.00783
 Atom     6 has atomic number  1 and mass   1.00783
 Molecular mass:    45.02146 amu.
 Principal axes and moments of inertia in atomic units:
                           1         2         3
     Eigenvalues --    25.17760 162.98262 188.01354
           X            0.99981  -0.01870   0.00565
           Y            0.01873   0.99982  -0.00399
           Z           -0.00558   0.00409   0.99998
 This molecule is an asymmetric top.
 Rotational symmetry number  1.
 Rotational temperatures (Kelvin)      3.44011     0.53143     0.46068
 Rotational constants (GHZ):          71.68044    11.07321     9.59900
 Zero-point vibrational energy     115143.0 (Joules/Mol)
                                   27.51983 (Kcal/Mol)
 Warning -- explicit consideration of   2 degrees of freedom as
           vibrations may cause significant error
 Vibrational temperatures:    232.55   776.27   902.80  1406.38  1464.06
          (Kelvin)           1778.84  1970.02  2262.42  2531.77  4160.80
                             5002.92  5208.18
 
 Zero-point correction=                           0.043856 (Hartree/Particle)
 Thermal correction to Energy=                    0.047756
 Thermal correction to Enthalpy=                  0.048700
 Thermal correction to Gibbs Free Energy=         0.019066
 Sum of electronic and zero-point Energies=           -169.685503
 Sum of electronic and thermal Energies=              -169.681603
 Sum of electronic and thermal Enthalpies=            -169.680659
 Sum of electronic and thermal Free Energies=         -169.710293
 
                     E (Thermal)             CV                S
                      KCal/Mol        Cal/Mol-Kelvin    Cal/Mol-Kelvin
 Total                   29.968             11.136             62.371
 Electronic               0.000              0.000              0.000
 Translational            0.889              2.981             37.339
 Rotational               0.889              2.981             21.272
 Vibrational             28.190              5.175              3.760
 Vibration     1          0.622              1.889              2.531
 Vibration     2          0.895              1.163              0.566
                       Q            Log10(Q)             Ln(Q)
 Total Bot       0.169962D-08         -8.769649        -20.192863
 Total V=0       0.252642D+12         11.402506         26.255240
 Vib (Bot)       0.143962D-19        -19.841753        -45.687324
 Vib (Bot)    1  0.125016D+01          0.096967          0.223274
 Vib (Bot)    2  0.293781D+00         -0.531977         -1.224922
 Vib (V=0)       0.213994D+01          0.330403          0.760780
 Vib (V=0)    1  0.184644D+01          0.266336          0.613261
 Vib (V=0)    2  0.107992D+01          0.033392          0.076887
 Electronic      0.100000D+01          0.000000          0.000000
 Translational   0.118737D+08          7.074585         16.289833
 Rotational      0.994303D+04          3.997519          9.204627
 ***** Axes restored to original set *****
 -------------------------------------------------------------------
 Center     Atomic                   Forces (Hartrees/Bohr)
 Number     Number              X              Y              Z
 -------------------------------------------------------------------
      1        6           0.000000390   -0.000000190   -0.000000220
      2        7          -0.000000497    0.000000085    0.000000110
      3        8          -0.000000091    0.000000710   -0.000000034
      4        1          -0.000000225   -0.000000288    0.000000370
      5        1           0.000000231   -0.000000494    0.000000110
      6        1           0.000000192    0.000000178   -0.000000335
 -------------------------------------------------------------------
 Cartesian Forces:  Max     0.000000710 RMS     0.000000314

 GradGradGradGradGradGradGradGradGradGradGradGradGradGradGradGradGradGrad
 Berny optimization.
 Internal  Forces:  Max     0.000000294 RMS     0.000000129
 Search for a local minimum.
 Step number   1 out of a maximum of    2
 All quantities printed in internal units (Hartrees-Bohrs-Radians)
 Second derivative matrix not updated -- analytic derivatives used.
 The second derivative matrix:
                          R1        R2        R3        R4        R5
           R1           0.42894
           R2           0.07182   0.77688
           R3           0.01615   0.02965   0.29667
           R4           0.00706  -0.00128  -0.00031   0.44754
           R5           0.00357  -0.00159   0.00060  -0.00421   0.45046
           A1           0.01628   0.02993  -0.01336  -0.00776   0.00791
           A2           0.01141  -0.03857   0.01433   0.00714  -0.00424
           A3          -0.02766   0.00864  -0.00097   0.00063  -0.00366
           A4           0.00349   0.00021   0.00195   0.00641  -0.00697
           A5           0.00902   0.00247   0.00049  -0.00845   0.00190
           A6          -0.01035  -0.00287  -0.00229   0.00250   0.00545
           D1           0.00492  -0.00083   0.00051   0.00137   0.00161
           D2          -0.00322   0.00046   0.00018  -0.00110  -0.00085
           D3           0.00329  -0.00115   0.00017   0.00078   0.00091
           D4          -0.00485   0.00013  -0.00016  -0.00169  -0.00154
                          A1        A2        A3        A4        A5
           A1           0.15753
           A2          -0.07963   0.11359
           A3          -0.07785  -0.03394   0.11176
           A4          -0.02254   0.01860   0.00395   0.07328
           A5           0.02039  -0.01436  -0.00605  -0.03758   0.07502
           A6           0.00203  -0.00389   0.00185  -0.03449  -0.03631
           D1           0.00006   0.00111  -0.00041   0.00177  -0.00161
           D2           0.00049  -0.00002   0.00041   0.00109  -0.00091
           D3          -0.00108   0.00068  -0.00040   0.00139  -0.00079
           D4          -0.00065  -0.00045   0.00042   0.00071  -0.00009
                          A6        D1        D2        D3        D4
           A6           0.06866
           D1          -0.00027   0.02534
           D2          -0.00077   0.02586   0.02858
           D3           0.00054  -0.01406  -0.01923   0.02645
           D4           0.00004  -0.01354  -0.01651   0.02128   0.01830
     Eigenvalues ---    0.00109   0.01668   0.08055   0.09696   0.10555
     Eigenvalues ---    0.14355   0.23551   0.30103   0.41881   0.44727
     Eigenvalues ---    0.45493   0.797081000.000001000.000001000.00000
 Angle between quadratic step and forces=  70.19 degrees.
 Linear search not attempted -- first point.
 Iteration  1 RMS(Cart)=  0.00000162 RMS(Int)=  0.00000000
 Iteration  2 RMS(Cart)=  0.00000000 RMS(Int)=  0.00000000
 Variable       Old X    -DE/DX   Delta X   Delta X   Delta X     New X
                                 (Linear)    (Quad)   (Total)
    R1        2.59539   0.00000   0.00000   0.00000   0.00000   2.59539
    R2        2.32591   0.00000   0.00000   0.00000   0.00000   2.32591
    R3        2.11270   0.00000   0.00000   0.00000   0.00000   2.11270
    R4        1.92945   0.00000   0.00000   0.00000   0.00000   1.92945
    R5        1.92587   0.00000   0.00000   0.00000   0.00000   1.92587
    A1        2.17939   0.00000   0.00000   0.00000   0.00000   2.17939
    A2        1.95211   0.00000   0.00000   0.00000   0.00000   1.95211
    A3        2.15148   0.00000   0.00000   0.00000   0.00000   2.15147
    A4        2.07213   0.00000   0.00000   0.00000   0.00000   2.07213
    A5        2.11267   0.00000   0.00000   0.00000   0.00000   2.11267
    A6        2.07025   0.00000   0.00000   0.00000   0.00000   2.07025
    D1       -0.11708   0.00000   0.00000   0.00000   0.00000  -0.11708
    D2       -3.00258   0.00000   0.00000   0.00001   0.00001  -3.00258
    D3        3.04600   0.00000   0.00000   0.00000   0.00000   3.04600
    D4        0.16049   0.00000   0.00000   0.00001   0.00001   0.16050
         Item               Value     Threshold  Converged?
 Maximum Force            0.000000     0.000002     YES
 RMS     Force            0.000000     0.000001     YES
 Maximum Displacement     0.000004     0.000006     YES
 RMS     Displacement     0.000002     0.000004     YES
 Predicted change in Energy=-8.084047D-13
 Optimization completed.
    -- Stationary point found.
                           ----------------------------
                           !   Optimized Parameters   !
                           ! (Angstroms and Degrees)  !
 --------------------------                            --------------------------
 ! Name  Definition              Value          Derivative Info.                !
 --------------------------------------------------------------------------------
 ! R1    R(1,2)                  1.3734         -DE/DX =    0.0                 !
 ! R2    R(1,3)                  1.2308         -DE/DX =    0.0                 !
 ! R3    R(1,6)                  1.118          -DE/DX =    0.0                 !
 ! R4    R(2,4)                  1.021          -DE/DX =    0.0                 !
 ! R5    R(2,5)                  1.0191         -DE/DX =    0.0                 !
 ! A1    A(2,1,3)              124.8698         -DE/DX =    0.0                 !
 ! A2    A(2,1,6)              111.8476         -DE/DX =    0.0                 !
 ! A3    A(3,1,6)              123.2705         -DE/DX =    0.0                 !
 ! A4    A(1,2,4)              118.7243         -DE/DX =    0.0                 !
 ! A5    A(1,2,5)              121.0473         -DE/DX =    0.0                 !
 ! A6    A(4,2,5)              118.6166         -DE/DX =    0.0                 !
 ! D1    D(3,1,2,4)             -6.708          -DE/DX =    0.0                 !
 ! D2    D(3,1,2,5)           -172.0352         -DE/DX =    0.0                 !
 ! D3    D(6,1,2,4)            174.5229         -DE/DX =    0.0                 !
 ! D4    D(6,1,2,5)              9.1956         -DE/DX =    0.0                 !
 --------------------------------------------------------------------------------
 GradGradGradGradGradGradGradGradGradGradGradGradGradGradGradGradGradGrad

 1\1\GINC-CLODOMIRA\Freq\RPBEPBE\Gen\C1H3N1O1\DIEGOA\31-Oct-2019\0\\#N 
 Geom=AllCheck Guess=TCheck SCRF=Check GenChk RPBEPBE/ChkBas Freq\\Titl
 e\\0,1\C,-0.1593602813,0.3924831568,-0.004927924\N,1.09611056,-0.16121
 60531,-0.0641137254\O,-1.2103406535,-0.247660527,0.0190451542\H,1.1894
 758296,-1.1749840531,0.0136370325\H,1.930183655,0.4151506537,0.0395435
 558\H,-0.1216091097,1.5098378228,-0.0027440929\\Version=EM64L-G09RevA.
 01\State=1-A\HF=-169.7293591\RMSD=9.643e-10\RMSF=3.142e-07\ZeroPoint=0
 .0438556\Thermal=0.0477563\Dipole=1.5439482,0.3166822,0.0967532\Dipole
 Deriv=1.9269008,0.0223095,-0.0779695,0.0337567,0.8663289,-0.0001281,-0
 .064987,-0.0145141,0.2048066,-1.0492995,0.1809401,0.0567286,0.4376601,
 -0.32134,-0.0169321,0.1440006,-0.0065452,-0.6276414,-1.1993505,-0.1190
 857,0.0311794,-0.4150934,-0.5903933,0.0190597,0.0146256,0.0102394,-0.3
 749479,0.1561324,-0.0201784,-0.0016431,-0.0030738,0.1705869,0.00913,-0
 .0334796,0.0220597,0.3434021,0.155677,0.007192,-0.0076095,-0.0138929,0
 .1476268,-0.0099101,-0.0614058,-0.0117571,0.354628,0.0099397,-0.071177
 5,-0.0006859,-0.0393567,-0.2728093,-0.0012195,0.0012463,0.0005173,0.09
 97527\Polar=31.5595486,0.6443536,23.0929201,-0.4605467,0.0859968,12.18
 13552\PolarDeriv=4.0978934,2.7110943,-0.7515543,-0.0477411,-0.1164023,
 0.4814654,4.9956441,1.132293,-8.0145235,-0.1236455,0.1749894,-0.362383
 6,0.1367899,0.0897025,0.2485208,-0.77051,1.687992,0.4127757,-2.4681842
 ,-3.5423994,-2.455851,-0.8882168,-0.005513,0.4054332,-2.468436,-1.7981
 814,5.1417686,-0.057299,-0.7819959,-0.0175822,-0.9688253,-0.2832997,-0
 .8768141,3.3102626,-1.2361764,-1.1102696,-12.2455943,-1.6868336,0.4809
 492,0.3492868,0.0492348,-0.9107162,-4.3919742,-4.5031477,-2.2752111,0.
 1008093,0.0785232,-0.4344894,-0.0746797,-0.0506289,-0.006653,-3.643450
 8,-1.813953,0.1723003,1.3883898,-1.2779837,0.1207023,0.11684,-0.012342
 3,-0.033092,-2.7340535,2.8084557,-8.0841699,-0.1654078,0.2870152,-0.08
 61237,0.2106143,-0.1029298,0.4974285,0.0735367,-1.227657,0.2326656,9.1
 91262,1.9733558,1.4416822,0.428815,0.0495119,0.0495747,4.1882364,2.560
 6663,2.1620586,0.2372792,0.2222769,0.0327192,0.7807655,0.3021358,0.313
 6072,1.0788517,0.7545275,0.3501602,0.0362335,1.8227666,1.1640717,0.041
 0162,0.035511,0.0073349,0.4105833,-0.200086,11.0700774,0.0082638,0.019
 1911,0.8678597,-0.0846647,0.0450202,-0.1760893,-0.0486901,1.8352669,-0
 .0576322\HyperPolar=58.899657,27.041206,34.2792632,11.0531944,6.462988
 5,0.0234056,3.646937,0.7481911,3.2547169,0.0539488\PG=C01 [X(C1H3N1O1)
 ]\NImag=0\\0.85341858,0.15601435,0.72658898,-0.01567549,0.00015361,0.1
 6501853,-0.28649342,0.09661086,0.01228148,0.75419249,0.08305057,-0.189
 39307,-0.00739211,0.04503469,0.79015504,0.00022269,-0.00354063,-0.0367
 6374,0.03595458,-0.00598468,0.01887135,-0.50525153,-0.26465982,0.00900
 565,-0.08378378,-0.01966740,0.00509516,0.59579679,-0.26256890,-0.27934
 303,0.00476405,-0.00618246,0.03685377,0.00214280,0.30594402,0.25930522
 ,0.00882177,0.00553155,-0.06512478,0.00345676,0.00141394,0.01654824,-0
 .01338017,-0.00651598,0.02934610,0.00914402,0.03580689,-0.00319158,-0.
 07415815,0.03107275,-0.00568452,0.00193166,-0.00612930,0.00039834,0.05
 923419,0.00284100,-0.01307693,0.00120062,0.02712087,-0.42562057,0.0288
 3840,-0.00292716,0.00185212,-0.00036277,-0.03733641,0.44166101,0.00272
 958,-0.00363064,0.00090100,-0.00804412,0.03984345,-0.00714088,-0.00146
 290,-0.00027903,-0.00547964,0.00461614,-0.03127526,0.01103184,-0.01386
 190,-0.02492232,-0.00268633,-0.31029235,-0.17278872,-0.03521848,-0.004
 08288,0.00622581,0.00017661,0.00893362,0.00761811,0.00130045,0.3186240
 1,0.00923127,0.01539891,0.00258108,-0.16942825,-0.19444789,-0.02134489
 ,0.00370993,0.00006128,-0.00073624,-0.02569097,-0.00521085,-0.00429396
 ,0.18260033,0.18503161,0.00459740,0.00126598,-0.01060910,-0.04426471,-
 0.02625126,-0.00032166,0.00027833,-0.00067011,0.00779928,0.00346133,0.
 00171323,-0.00541819,0.03600440,0.02372282,0.00968844,-0.05695577,0.00
 115004,0.00026628,0.00053520,0.03329810,-0.00036944,-0.00461027,-0.037
 28917,0.00052669,-0.00508534,0.00268359,0.00086086,0.00067950,-0.00042
 231,-0.00007676,0.06543667,0.01143171,-0.26017486,-0.00130725,0.006844
 30,-0.01754728,-0.00011101,-0.02239957,-0.01872936,0.00066949,0.002277
 04,0.00039522,-0.00036455,0.00126679,-0.00083306,0.00021934,0.00057974
 ,0.29688932,-0.00069595,0.00022013,-0.05342191,0.00061601,-0.00162934,
 0.00880669,0.00046393,0.00055828,0.01691081,0.00040029,-0.00011422,0.0
 0610587,0.00042335,0.00007119,-0.00113877,-0.00120763,0.00089397,0.022
 73731\\-0.00000039,0.00000019,0.00000022,0.00000050,-0.00000009,-0.000
 00011,0.00000009,-0.00000071,0.00000003,0.00000022,0.00000029,-0.00000
 037,-0.00000023,0.00000049,-0.00000011,-0.00000019,-0.00000018,0.00000
 034\\\@


 Just remember, when you're over the hill, you begin to pick up speed.
 -- Charles Schulz
 Job cpu time:  0 days  0 hours  1 minutes 49.8 seconds.
 File lengths (MBytes):  RWF=      9 Int=      0 D2E=      0 Chk=      2 Scr=      1
 Normal termination of Gaussian 09 at Thu Oct 31 18:49:57 2019.
