 Entering Gaussian System, Link 0=g09
 Input=td2.com
 Output=td2.log
 Initial command:
 /home/diegoa/progs/g09/l1.exe /home/diegoa/g09scratch/Gau-14937.inp -scrdir=/home/diegoa/g09scratch/
 Default is to use a total of   4 processors:
                                4 via shared-memory
                                1 via Linda
 Entering Link 1 = /home/diegoa/progs/g09/l1.exe PID=     14939.
  
 Copyright (c) 1988,1990,1992,1993,1995,1998,2003,2009, Gaussian, Inc.
                  All Rights Reserved.
  
 This is part of the Gaussian(R) 09 program.  It is based on
 the Gaussian(R) 03 system (copyright 2003, Gaussian, Inc.),
 the Gaussian(R) 98 system (copyright 1998, Gaussian, Inc.),
 the Gaussian(R) 94 system (copyright 1995, Gaussian, Inc.),
 the Gaussian 92(TM) system (copyright 1992, Gaussian, Inc.),
 the Gaussian 90(TM) system (copyright 1990, Gaussian, Inc.),
 the Gaussian 88(TM) system (copyright 1988, Gaussian, Inc.),
 the Gaussian 86(TM) system (copyright 1986, Carnegie Mellon
 University), and the Gaussian 82(TM) system (copyright 1983,
 Carnegie Mellon University). Gaussian is a federally registered
 trademark of Gaussian, Inc.
  
 This software contains proprietary and confidential information,
 including trade secrets, belonging to Gaussian, Inc.
  
 This software is provided under written license and may be
 used, copied, transmitted, or stored only in accord with that
 written license.
  
 The following legend is applicable only to US Government
 contracts under FAR:
  
                    RESTRICTED RIGHTS LEGEND
  
 Use, reproduction and disclosure by the US Government is
 subject to restrictions as set forth in subparagraphs (a)
 and (c) of the Commercial Computer Software - Restricted
 Rights clause in FAR 52.227-19.
  
 Gaussian, Inc.
 340 Quinnipiac St., Bldg. 40, Wallingford CT 06492
  
  
 ---------------------------------------------------------------
 Warning -- This program may not be used in any manner that
 competes with the business of Gaussian, Inc. or will provide
 assistance to any competitor of Gaussian, Inc.  The licensee
 of this program is prohibited from giving any competitor of
 Gaussian, Inc. access to this program.  By using this program,
 the user acknowledges that Gaussian, Inc. is engaged in the
 business of creating and licensing software in the field of
 computational chemistry and represents and warrants to the
 licensee that it is not a competitor of Gaussian, Inc. and that
 it will not use this program in any manner prohibited above.
 ---------------------------------------------------------------
  

 Cite this work as:
 Gaussian 09, Revision A.01,
 M. J. Frisch, G. W. Trucks, H. B. Schlegel, G. E. Scuseria, 
 M. A. Robb, J. R. Cheeseman, G. Scalmani, V. Barone, B. Mennucci, 
 G. A. Petersson, H. Nakatsuji, M. Caricato, X. Li, H. P. Hratchian, 
 A. F. Izmaylov, J. Bloino, G. Zheng, J. L. Sonnenberg, M. Hada, 
 M. Ehara, K. Toyota, R. Fukuda, J. Hasegawa, M. Ishida, T. Nakajima, 
 Y. Honda, O. Kitao, H. Nakai, T. Vreven, J. A. Montgomery, Jr., 
 J. E. Peralta, F. Ogliaro, M. Bearpark, J. J. Heyd, E. Brothers, 
 K. N. Kudin, V. N. Staroverov, R. Kobayashi, J. Normand, 
 K. Raghavachari, A. Rendell, J. C. Burant, S. S. Iyengar, J. Tomasi, 
 M. Cossi, N. Rega, J. M. Millam, M. Klene, J. E. Knox, J. B. Cross, 
 V. Bakken, C. Adamo, J. Jaramillo, R. Gomperts, R. E. Stratmann, 
 O. Yazyev, A. J. Austin, R. Cammi, C. Pomelli, J. W. Ochterski, 
 R. L. Martin, K. Morokuma, V. G. Zakrzewski, G. A. Voth, 
 P. Salvador, J. J. Dannenberg, S. Dapprich, A. D. Daniels, 
 O. Farkas, J. B. Foresman, J. V. Ortiz, J. Cioslowski, 
 and D. J. Fox, Gaussian, Inc., Wallingford CT, 2009.
 
 ******************************************
 Gaussian 09:  EM64L-G09RevA.01  8-May-2009
                31-Oct-2019 
 ******************************************
 %chk=td2.chk
 %NProcShared=4
 Will use up to    4 processors via shared memory.
 Default route:  MP2=Direct MaxDisk=1000GB DenFit
 -----------------------------------------------
 # pbepbe/Gen force nosymm td(root=2,nstates=10)
 -----------------------------------------------
 1/10=7,30=1,38=1/1,3;
 2/12=2,15=1,17=6,18=5,40=1/2;
 3/5=7,11=2,16=1,25=1,30=1,71=1,74=1009,82=47/1,2,8,3;
 4//1;
 5/5=2,38=5/2;
 8/6=1,10=1,107=2,108=10/1;
 9/8=2,15=2,41=10,42=1/14;
 10/5=4,31=1/2;
 6/7=2,8=2,9=2,10=2,18=1/1;
 7/12=6,13=5,14=2,29=1,30=1/1,2,3,16;
 1/10=7,30=1/3;
 99//99;
 -----
 Title
 -----
 Symbolic Z-matrix:
 Charge =  0 Multiplicity = 1
 6                    -0.16069   0.39274   0.00149 
 7                     1.09565  -0.16141  -0.02714 
 8                    -1.21212  -0.24712   0.00384 
 1                     1.18695  -1.17491   0.05634 
 1                     1.92731   0.41517   0.09341 
 1                    -0.1227    1.51009   0.00054 
 

 GradGradGradGradGradGradGradGradGradGradGradGradGradGradGradGradGradGrad
 Berny optimization.
 Initialization pass.
 Trust Radius=3.00D-01 FncErr=1.00D-07 GrdErr=1.00D-07
 Number of steps in this run=   2 maximum allowed number of steps=   2.
 GradGradGradGradGradGradGradGradGradGradGradGradGradGradGradGradGradGrad

                          Input orientation:                          
 ---------------------------------------------------------------------
 Center     Atomic      Atomic             Coordinates (Angstroms)
 Number     Number       Type             X           Y           Z
 ---------------------------------------------------------------------
      1          6           0       -0.160692    0.392739    0.001494
      2          7           0        1.095650   -0.161408   -0.027139
      3          8           0       -1.212119   -0.247115    0.003840
      4          1           0        1.186947   -1.174909    0.056337
      5          1           0        1.927306    0.415168    0.093405
      6          1           0       -0.122697    1.510087    0.000544
 ---------------------------------------------------------------------
                    Distance matrix (angstroms):
                    1          2          3          4          5
     1  C    0.000000
     2  N    1.373424   0.000000
     3  O    1.230820   2.309568   0.000000
     4  H    2.068008   1.021023   2.572756   0.000000
     5  H    2.090140   1.019128   3.209771   1.754380   0.000000
     6  H    1.117994   2.068582   2.067513   2.987890   2.325937
                    6
     6  H    0.000000
 Symmetry turned off by external request.
 Stoichiometry    CH3NO
 Framework group  C1[X(CH3NO)]
 Deg. of freedom    12
 Full point group                 C1      NOp   1
 Rotational constants (GHZ):     71.6803767     11.0732162      9.5989979
 General basis read from cards:  (5D, 7F)
 Integral buffers will be    131072 words long.
 Raffenetti 2 integral format.
 Two-electron integral symmetry is turned off.
    48 basis functions,   105 primitive gaussians,    51 cartesian basis functions
    12 alpha electrons       12 beta electrons
       nuclear repulsion energy        70.3164971256 Hartrees.
 NAtoms=    6 NActive=    6 NUniq=    6 SFac= 7.50D-01 NAtFMM=   80 NAOKFM=F Big=F
 Standard density basis: Auto (5D, 7F)
   255 Density fitting functions
 One-electron integrals computed using PRISM.
 NBasis=    48 RedAO= T  NBF=    48
 NBsUse=    48 1.00D-06 NBFU=    48
 NBasis=       48 NBas6D=       51 NTT=        1176   NTT6D=     1326
 NDBShl=       51 NDBF=        255 NDBF6D=      294  NNucDB=        0
 IDenFi=        2 ISolve=        0 FullAP=F BlkAPC=T NucTyp=        0
 TolInv= 1.00D-05 TolIt=  1.00D-10 IR12=0.
 Symmetry not used in FoFDir.
 MinBra= 0 MaxBra= 3 Meth= 1.
 IRaf=       0 NMat=   1 IRICut=       1 DoRegI=T DoRafI=F ISym2E= 0 JSym2E=0.
  NDBF=   255  NBFD=   255
 NRank=   255 NBFDU=   255
 S*AI*S=  4.91151720175    
 Harris functional with IExCor= 1009 diagonalized for initial guess.
 ExpMin= 1.10D-01 ExpMax= 5.22D+03 ExpMxC= 7.83D+02 IAcc=1 IRadAn=         1 AccDes= 0.00D+00
 HarFok:  IExCor= 1009 AccDes= 0.00D+00 IRadAn=         1 IDoV= 1
 ScaDFX=  1.000000  1.000000  1.000000  1.000000
 FoFCou: FMM=F IPFlag=           0 FMFlag=      100000 FMFlg1=           0
         NFxFlg=           0 DoJE=T BraDBF=F KetDBF=T FulRan=T
         Omega=  0.000000  0.000000  1.000000  0.000000  0.000000 ICntrl=     500 IOpCl=  0
         NMat0=    1 NMatS0=    1 NMatT0=    0 NMatD0=    1 NMtDS0=    0 NMtDT0=    0
         I1Cent=           4 NGrid=           0.
 Symmetry not used in FoFCou.
 Requested convergence on RMS density matrix=1.00D-08 within 128 cycles.
 Requested convergence on MAX density matrix=1.00D-06.
 Requested convergence on             energy=1.00D-06.
 No special actions if energy rises.
 FoFCou: FMM=F IPFlag=           0 FMFlag=      100000 FMFlg1=           0
         NFxFlg=           0 DoJE=T BraDBF=T KetDBF=F FulRan=T
         Omega=  0.000000  0.000000  1.000000  0.000000  0.000000 ICntrl=     500 IOpCl=  0
         NMat0=    1 NMatS0=    1 NMatT0=    0 NMatD0=    1 NMtDS0=    0 NMtDT0=    0
         I1Cent=           5 NGrid=           0.
 Symmetry not used in FoFCou.
 Initial convergence to 1.0D-05 achieved.  Increase integral accuracy.
 SCF Done:  E(RPBE-PBE) =  -169.729360861     A.U. after   13 cycles
             Convg  =    0.7999D-08             -V/T =  2.0130
 ExpMin= 1.10D-01 ExpMax= 5.22D+03 ExpMxC= 7.83D+02 IAcc=1 IRadAn=         1 AccDes= 0.00D+00
 HarFok:  IExCor=  205 AccDes= 0.00D+00 IRadAn=         1 IDoV=-2
 ScaDFX=  1.000000  1.000000  1.000000  1.000000
 Range of M.O.s used for correlation:     4    48
 NBasis=    48 NAE=    12 NBE=    12 NFC=     3 NFV=     0
 NROrb=     45 NOA=     9 NOB=     9 NVA=    36 NVB=    36
    40 initial guesses have been made.
 Convergence on wavefunction:    0.000001000000000
 Iteration     1 Dimension    40 NMult    40
 CISAX will form    40 AO SS matrices at one time.
 New state      2 was old state      3
 New state      3 was old state      4
 New state      4 was old state      5
 New state      5 was old state      6
 New state      6 was old state      2
 New state      7 was old state      9
 New state      9 was old state     10
 New state     10 was old state     11
 Iteration     2 Dimension    80 NMult    80
 New state      5 was old state      6
 New state      6 was old state      5
 Iteration     3 Dimension    90 NMult    90
 Iteration     4 Dimension   100 NMult   100
 Iteration     5 Dimension   110 NMult   110
 Iteration     6 Dimension   120 NMult   120
 Iteration     7 Dimension   130 NMult   130
 Iteration     8 Dimension   140 NMult   140
 Iteration     9 Dimension   150 NMult   150
 Iteration    10 Dimension   160 NMult   160
 Iteration    11 Dimension   169 NMult   169
 Iteration    12 Dimension   172 NMult   172
 ***********************************************************************
 Excited states from <AA,BB:AA,BB> singles matrix:
 ***********************************************************************
 
 Ground to excited state transition electric dipole moments (Au):
       state          X           Y           Z        Dip. S.      Osc.
         1         0.0064      0.0005      0.0766      0.0059      0.0008
         2        -0.0099      0.0277     -0.0368      0.0022      0.0004
         3         0.1294     -0.0774      0.1617      0.0489      0.0094
         4        -0.0306     -0.5948     -0.0290      0.3556      0.0697
         5         1.3148     -0.1106     -0.0322      1.7420      0.3453
         6         0.1357      0.0889     -0.0553      0.0294      0.0062
         7         0.0775     -0.3153     -0.0065      0.1055      0.0245
         8         0.0393      0.0249     -0.1018      0.0125      0.0030
         9        -0.0239     -0.0015     -0.0112      0.0007      0.0002
        10        -0.0308     -0.1130     -0.0037      0.0137      0.0036
 Ground to excited state transition velocity dipole moments (Au):
       state          X           Y           Z        Dip. S.      Osc.
         1        -0.0010     -0.0018     -0.0198      0.0004      0.0013
         2        -0.0039     -0.0080      0.0078      0.0001      0.0004
         3        -0.0351      0.0230     -0.0577      0.0051      0.0117
         4         0.0085      0.1690      0.0096      0.0287      0.0651
         5        -0.3807      0.0320      0.0090      0.1460      0.3274
         6        -0.0452     -0.0340      0.0083      0.0033      0.0068
         7        -0.0295      0.0973      0.0025      0.0103      0.0198
         8        -0.0139     -0.0080      0.0489      0.0027      0.0050
         9         0.0043      0.0057     -0.0008      0.0001      0.0001
        10         0.0108      0.0313      0.0044      0.0011      0.0019
 Ground to excited state transition magnetic dipole moments (Au):
       state          X           Y           Z
         1        -0.8955     -0.4109      0.0226
         2         0.0775      0.0079      0.1951
         3        -0.0139      0.2431      0.0229
         4        -0.0051     -0.0761      0.1876
         5         0.0209     -0.0491      0.3244
         6        -0.1605     -0.1420     -0.0807
         7         0.0202     -0.0092      0.2232
         8        -0.9405      1.1351     -0.0333
         9         0.0572     -0.1505      0.0446
        10        -0.0234     -0.0114      0.7041
 <0|del|b> * <b|rxdel|0> + <0|del|b> * <b|delr+rdel|0>
 Rotatory Strengths (R) in cgs (10**-40 erg-esu-cm/Gauss)
       state          XX          YY          ZZ    R(velocity)
         1         0.3887      0.9537      2.7050      1.3491
 Total R(velocity) tensor for State=          1
                 1             2             3 
      1   0.388652D+00 -0.771403D+00  0.510613D-01
      2  -0.354791D+01  0.953718D+00  0.846147D-01
      3  -0.295202D+02 -0.141848D+02  0.270502D+01
         2         3.4785      0.4328     -0.7018      1.0698
 Total R(velocity) tensor for State=          2
                 1             2             3 
      1   0.347850D+01 -0.141454D+01  0.300098D+00
      2   0.230634D+01  0.432753D+00  0.160925D+01
      3  -0.847178D+00 -0.266563D+00 -0.701832D+00
         3         8.8140      0.1887      2.5831      3.8619
 Total R(velocity) tensor for State=          3
                 1             2             3 
      1   0.881401D+01  0.148909D+02  0.558298D+00
      2   0.217417D+00  0.188658D+00 -0.572654D-01
      3  -0.102006D+01  0.493568D+01  0.258312D+01
         4       -19.8403     -0.1674     -6.6963     -8.9014
 Total R(velocity) tensor for State=          4
                 1             2             3 
      1  -0.198403D+02  0.856549D-01  0.161365D+02
      2   0.165230D+00 -0.167428D+00  0.281480D+01
      3   0.585757D+01  0.839388D-01 -0.669631D+01
         5         2.4415     -5.9029    -12.2910     -5.2508
 Total R(velocity) tensor for State=          5
                 1             2             3 
      1   0.244145D+01 -0.298580D+02  0.210258D+03
      2  -0.118632D+01 -0.590294D+01 -0.292568D+02
      3   0.351424D+00  0.761578D+01 -0.122910D+02
         6         6.6536     10.9046      7.7353      8.4312
 Total R(velocity) tensor for State=          6
                 1             2             3 
      1   0.665357D+01 -0.970739D+01 -0.348564D+01
      2  -0.815201D+01  0.109046D+02  0.243564D+00
      3   0.931289D+00  0.660769D+00  0.773533D+01
         7        -1.5037      0.3462     -0.7324     -0.6300
 Total R(velocity) tensor for State=          7
                 1             2             3 
      1  -0.150368D+01  0.261790D+00 -0.276787D+02
      2   0.502827D+00  0.346202D+00 -0.746663D+01
      3   0.741471D+01  0.226825D+01 -0.732412D+00
         8       -13.7998     14.7497      3.6578      1.5359
 Total R(velocity) tensor for State=          8
                 1             2             3 
      1  -0.137998D+02  0.198335D+02 -0.661361D+00
      2  -0.808823D+01  0.147497D+02  0.126546D+00
      3   0.374222D+02 -0.424534D+02  0.365779D+01
         9        -1.5820      0.2923      0.0705     -0.4064
 Total R(velocity) tensor for State=          9
                 1             2             3 
      1  -0.158201D+01  0.116753D+01 -0.255266D+00
      2  -0.304052D+00  0.292290D+00  0.458814D+00
      3  -0.453318D-02  0.128723D-01  0.705271D-01
        10         2.5849      2.2468     -0.3496      1.4940
 Total R(velocity) tensor for State=         10
                 1             2             3 
      1   0.258487D+01  0.351132D+01 -0.313946D+02
      2   0.207916D+01  0.224682D+01 -0.211348D+02
      3  -0.438333D+01  0.156176D+01 -0.349611D+00
 1/2[<0|r|b>*<b|rxdel|0> + (<0|rxdel|b>*<b|r|0>)*]
 Rotatory Strengths (R) in cgs (10**-40 erg-esu-cm/Gauss)
       state          XX          YY          ZZ     R(length)     R(au)
         1         4.0651      0.1565     -1.2223      0.9998      0.0021
         2         0.5443     -0.1552      5.0796      1.8229      0.0039
         3         1.2746     13.3026     -2.6205      3.9856      0.0085
         4        -0.1101    -32.0020      3.8419     -9.4234     -0.0200
         5       -19.4459     -3.8383      7.3853     -5.2997     -0.0112
         6        15.3933      8.9324     -3.1560      7.0565      0.0150
         7        -1.1085     -2.0613      1.0284     -0.7138     -0.0015
         8        26.1074    -19.9924     -2.3972      1.2393      0.0026
         9         0.9657     -0.1639      0.3545      0.3855      0.0008
        10        -0.5113     -0.9134      1.8624      0.1459      0.0003
  1/2[<0|del|b>*<b|r|0> + (<0|r|b>*<b|del|0>)*] (Au)
       state          X           Y           Z        Dip. S.   Osc.(frdel)
         1         0.0000      0.0000     -0.0015      0.0015      0.0010
         2         0.0000     -0.0002     -0.0003      0.0005      0.0003
         3        -0.0045     -0.0018     -0.0093      0.0157      0.0104
         4        -0.0003     -0.1005     -0.0003      0.1011      0.0674
         5        -0.5005     -0.0035     -0.0003      0.5043      0.3362
         6        -0.0061     -0.0030     -0.0005      0.0096      0.0064
         7        -0.0023     -0.0307      0.0000      0.0330      0.0220
         8        -0.0005     -0.0002     -0.0050      0.0057      0.0038
         9        -0.0001      0.0000      0.0000      0.0001      0.0001
        10        -0.0003     -0.0035      0.0000      0.0039      0.0026
 Ground to excited state transition densities written to RWF  633

 Excitation energies and oscillator strengths:
 
 Excited state symmetry could not be determined.
 Excited State   1:      Singlet-?Sym    5.4326 eV  228.22 nm  f=0.0008  <S**2>=0.000
      12 -> 13         0.70660
 
 Excited state symmetry could not be determined.
 Excited State   2:      Singlet-?Sym    6.9076 eV  179.49 nm  f=0.0004  <S**2>=0.000
      11 -> 13         0.35571
      12 -> 14         0.61000
 This state for optimization and/or second-order correction.
 Copying the excited state density for this state as the 1-particle RhoCI density.
 
 Excited state symmetry could not be determined.
 Excited State   3:      Singlet-?Sym    7.8848 eV  157.25 nm  f=0.0094  <S**2>=0.000
      11 -> 14         0.69729
 
 Excited state symmetry could not be determined.
 Excited State   4:      Singlet-?Sym    8.0054 eV  154.88 nm  f=0.0697  <S**2>=0.000
      12 -> 15         0.69615
 
 Excited state symmetry could not be determined.
 Excited State   5:      Singlet-?Sym    8.0912 eV  153.23 nm  f=0.3453  <S**2>=0.000
      11 -> 13         0.59055
      12 -> 14        -0.34901
 
 Excited state symmetry could not be determined.
 Excited State   6:      Singlet-?Sym    8.6730 eV  142.95 nm  f=0.0062  <S**2>=0.000
      11 -> 15         0.70384
 
 Excited state symmetry could not be determined.
 Excited State   7:      Singlet-?Sym    9.4966 eV  130.56 nm  f=0.0245  <S**2>=0.000
      12 -> 16         0.69504
 
 Excited state symmetry could not be determined.
 Excited State   8:      Singlet-?Sym    9.6884 eV  127.97 nm  f=0.0030  <S**2>=0.000
       9 -> 13         0.66907
      10 -> 13        -0.21340
 
 Excited state symmetry could not be determined.
 Excited State   9:      Singlet-?Sym   10.0945 eV  122.82 nm  f=0.0002  <S**2>=0.000
      11 -> 16         0.70483
 
 Excited state symmetry could not be determined.
 Excited State  10:      Singlet-?Sym   10.6599 eV  116.31 nm  f=0.0036  <S**2>=0.000
       9 -> 13         0.14895
      10 -> 13         0.46476
      12 -> 17         0.48108
 SavETr:  write IOETrn=   770 NScale= 10 NData=  16 NLR=1 LETran=     190.
          IDoAtm=111111
          Differentiating once with respect to electric field.
                with respect to dipole field.
          Differentiating once with respect to nuclear coordinates.
          There are     1 degrees of freedom in the 1st order CPHF.  IDoFFX=0.
 FoFCou: FMM=F IPFlag=           0 FMFlag=      100000 FMFlg1=           0
         NFxFlg=           0 DoJE=T BraDBF=T KetDBF=F FulRan=T
         Omega=  0.000000  0.000000  1.000000  0.000000  0.000000 ICntrl=     500 IOpCl=  0
         NMat0=    1 NMatS0=    1 NMatT0=    0 NMatD0=    1 NMtDS0=    0 NMtDT0=    0
         I1Cent=           5 NGrid=           0.
 Symmetry not used in FoFCou.
 LinEq1:  Iter=  0 NonCon=     1 RMS=1.21D-01 Max=2.01D+00
 AX will form     1 AO Fock derivatives at one time.
 LinEq1:  Iter=  1 NonCon=     1 RMS=5.75D-02 Max=3.96D-01
 LinEq1:  Iter=  2 NonCon=     1 RMS=2.78D-02 Max=1.40D-01
 LinEq1:  Iter=  3 NonCon=     1 RMS=1.50D-02 Max=2.10D-01
 LinEq1:  Iter=  4 NonCon=     1 RMS=1.02D-02 Max=8.63D-02
 LinEq1:  Iter=  5 NonCon=     1 RMS=1.54D-03 Max=1.68D-02
 LinEq1:  Iter=  6 NonCon=     1 RMS=3.63D-04 Max=3.15D-03
 LinEq1:  Iter=  7 NonCon=     1 RMS=7.91D-05 Max=4.02D-04
 LinEq1:  Iter=  8 NonCon=     1 RMS=8.22D-06 Max=4.52D-05
 LinEq1:  Iter=  9 NonCon=     1 RMS=1.66D-06 Max=1.12D-05
 LinEq1:  Iter= 10 NonCon=     1 RMS=2.07D-07 Max=9.60D-07
 LinEq1:  Iter= 11 NonCon=     1 RMS=5.73D-08 Max=4.05D-07
 LinEq1:  Iter= 12 NonCon=     1 RMS=9.33D-09 Max=4.63D-08
 LinEq1:  Iter= 13 NonCon=     1 RMS=1.12D-09 Max=5.00D-09
 LinEq1:  Iter= 14 NonCon=     1 RMS=1.33D-10 Max=6.81D-10
 LinEq1:  Iter= 15 NonCon=     0 RMS=1.45D-11 Max=9.74D-11
 Linear equations converged to 1.000D-10 1.000D-09 after    15 iterations.
 End of Minotr Frequency-dependent properties file   721 does not exist.
 End of Minotr Frequency-dependent properties file   722 does not exist.

 **********************************************************************

            Population analysis using the SCF density.

 **********************************************************************

 Alpha  occ. eigenvalues --  -18.74000 -14.03386 -10.01013  -0.94427  -0.83383
 Alpha  occ. eigenvalues --   -0.57102  -0.50743  -0.43052  -0.36311  -0.35906
 Alpha  occ. eigenvalues --   -0.24279  -0.21490
 Alpha virt. eigenvalues --   -0.02301   0.03956   0.07373   0.12614   0.17747
 Alpha virt. eigenvalues --    0.26199   0.27545   0.29694   0.41292   0.44950
 Alpha virt. eigenvalues --    0.46211   0.50677   0.56712   0.64663   0.68329
 Alpha virt. eigenvalues --    0.70459   0.75503   0.81583   0.92431   1.07342
 Alpha virt. eigenvalues --    1.13624   1.15235   1.38419   1.43348   1.54532
 Alpha virt. eigenvalues --    1.60252   1.70735   1.83904   1.88410   1.95896
 Alpha virt. eigenvalues --    1.99035   2.08815   2.23003   2.32798   2.52507
 Alpha virt. eigenvalues --    2.69146
          Condensed to atoms (all electrons):
              1          2          3          4          5          6
     1  C    4.534445   0.394648   0.708755  -0.011843  -0.018600   0.326331
     2  N    0.394648   6.833015  -0.088476   0.299447   0.297915  -0.091652
     3  O    0.708755  -0.088476   7.756196   0.005895   0.003802  -0.075169
     4  H   -0.011843   0.299447   0.005895   0.346614  -0.016869   0.007043
     5  H   -0.018600   0.297915   0.003802  -0.016869   0.362787   0.006365
     6  H    0.326331  -0.091652  -0.075169   0.007043   0.006365   0.671764
 Mulliken atomic charges:
              1
     1  C    0.066264
     2  N   -0.644896
     3  O   -0.311002
     4  H    0.369713
     5  H    0.364601
     6  H    0.155319
 Sum of Mulliken atomic charges =   0.00000
 Mulliken charges with hydrogens summed into heavy atoms:
              1
     1  C    0.221583
     2  N    0.089419
     3  O   -0.311002
 Sum of Mulliken charges with hydrogens summed into heavy atoms =   0.00000
 Electronic spatial extent (au):  <R**2>=            149.0665
 Charge=              0.0000 electrons
 Dipole moment (field-independent basis, Debye):
    X=              3.9179    Y=              0.8050    Z=              0.3322  Tot=              4.0135
 Quadrupole moment (field-independent basis, Debye-Ang):
   XX=            -17.7136   YY=            -15.2348   ZZ=            -19.1463
   XY=             -1.1034   XZ=              0.6222   YZ=             -0.0709
 Traceless Quadrupole moment (field-independent basis, Debye-Ang):
   XX=             -0.3487   YY=              2.1301   ZZ=             -1.7814
   XY=             -1.1034   XZ=              0.6222   YZ=             -0.0709
 Octapole moment (field-independent basis, Debye-Ang**2):
  XXX=             12.8518  YYY=             -1.8985  ZZZ=              0.3236  XYY=              3.0252
  XXY=              0.7834  XXZ=              1.0787  XZZ=             -1.4945  YZZ=             -0.2241
  YYZ=              0.2529  XYZ=             -0.0510
 Hexadecapole moment (field-independent basis, Debye-Ang**3):
 XXXX=           -111.8411 YYYY=            -33.4800 ZZZZ=            -18.3101 XXXY=              2.8405
 XXXZ=              2.1508 YYYX=             -3.3753 YYYZ=             -0.2294 ZZZX=              0.5401
 ZZZY=             -0.0686 XXYY=            -23.5892 XXZZ=            -25.4557 YYZZ=             -9.7301
 XXYZ=              0.0358 YYXZ=              0.3853 ZZXY=              0.3380
 N-N= 7.031649712559D+01 E-N=-5.375749411256D+02  KE= 1.675512213381D+02
 Fitting Gamma and (X+Y) densities for TD-KS first derivatives, JSym2E=0.
 Calling FoFJK, ICntrl=      5527 FMM=F ISym2X=0 I1Cent= 4 IOpClX= 0 NMat=1 NMatS=1 NMatT=0.
 -------------------------------------------------------------------
 Center     Atomic                   Forces (Hartrees/Bohr)
 Number     Number              X              Y              Z
 -------------------------------------------------------------------
      1        6           0.123682296    0.045469201    0.000150874
      2        7          -0.092444106   -0.004105124   -0.005030626
      3        8          -0.086160707   -0.039732200   -0.001078292
      4        1           0.002081730   -0.047074844    0.000128349
      5        1           0.066810748    0.055646800    0.006584178
      6        1          -0.013969961   -0.010203833   -0.000754482
 -------------------------------------------------------------------
 Cartesian Forces:  Max     0.123682296 RMS     0.050044515

 GradGradGradGradGradGradGradGradGradGradGradGradGradGradGradGradGradGrad
 Berny optimization.
 Search for a local minimum.
 Step number   1 out of a maximum of    2
 All quantities printed in internal units (Hartrees-Bohrs-Radians)
 Second derivative matrix not updated -- first step.
 The second derivative matrix:
                          X1        Y1        Z1        X2        Y2
           X1           1.23329
           Y1           0.22419   0.85471
           Z1          -0.01052   0.00492   0.12902
           X2          -0.44701   0.11977   0.01527   0.90625
           Y2           0.12744  -0.22946  -0.00901  -0.01968   0.85320
           Z2           0.00834  -0.00533  -0.07259   0.04459  -0.00491
           X3          -0.69092  -0.34909   0.00191  -0.00867  -0.01966
           Y3          -0.35582  -0.33383   0.00004   0.01426   0.03232
           Z3           0.00085  -0.00105  -0.04170   0.00153   0.00280
           X4           0.01270   0.02896  -0.00332  -0.12303   0.03691
           Y4           0.00110   0.00245   0.00090   0.02782  -0.43497
           Z4          -0.00053  -0.00195   0.01453  -0.01078   0.04194
           X5          -0.00742  -0.01662  -0.00381  -0.33928  -0.15163
           Y5           0.01046   0.02357   0.00294  -0.14177  -0.22018
           Z5           0.00112   0.00191   0.01221  -0.04969  -0.02813
           X6          -0.10064  -0.00722   0.00046   0.01174   0.02663
           Y6          -0.00738  -0.31743   0.00022  -0.00040  -0.00091
           Z6           0.00074   0.00150  -0.04148  -0.00092  -0.00269
                          Z2        X3        Y3        Z3        X4
           Z2           0.15947
           X3          -0.00012   0.68268
           Y3           0.00025   0.36934   0.30054
           Z3           0.01287  -0.00183  -0.00024   0.01955
           X4          -0.01096  -0.00001   0.00001  -0.00039   0.08723
           Y4           0.03088  -0.00001   0.00001  -0.00055  -0.03126
           Z4          -0.05489  -0.00009   0.00012  -0.00629   0.00818
           X5          -0.04177   0.00000   0.00001  -0.00027   0.02311
           Y5          -0.02090  -0.00001   0.00002  -0.00095  -0.03461
           Z5          -0.05660   0.00009  -0.00013   0.00641   0.00611
           X6          -0.00008   0.01692  -0.02780   0.00012   0.00001
           Y6           0.00001  -0.00058   0.00095   0.00000   0.00000
           Z6           0.01174   0.00005  -0.00004   0.00915   0.00038
                          Y4        Z4        X5        Y5        Z5
           Y4           0.43620
           Z4          -0.03326   0.02899
           X5           0.00234   0.00308   0.32359
           Y5          -0.00368  -0.00685   0.16591   0.20027
           Z5           0.00150   0.01155   0.04251   0.02484   0.03267
           X6           0.00001   0.00014   0.00001   0.00002  -0.00014
           Y6           0.00000   0.00000   0.00000   0.00000   0.00000
           Z6           0.00054   0.00612   0.00026   0.00092  -0.00624
                          X6        Y6        Z6
           X6           0.07197
           Y6           0.00836   0.31740
           Z6          -0.00051  -0.00024   0.02071
     Eigenvalues ---    0.02386   0.04579   0.07744   0.09243   0.14572
     Eigenvalues ---    0.19153   0.21383   0.35559   0.64868   1.08105
     Eigenvalues ---    1.34253   2.12304
 Angle between quadratic step and forces=  52.26 degrees.
 Linear search not attempted -- first point.
 TrRot= -0.011973  0.007993  0.004990  0.276943 -0.004872 -0.285051
 Variable       Old X    -DE/DX   Delta X   Delta X   Delta X     New X
                                 (Linear)    (Quad)   (Total)
    X1       -0.30366   0.12368   0.00000   0.05866   0.05252  -0.25114
    Y1        0.74217   0.04547   0.00000  -0.00871   0.00122   0.74339
    Z1        0.00282   0.00015   0.00000   0.02225   0.02710   0.02992
    X2        2.07048  -0.09244   0.00000   0.00415  -0.01043   2.06004
    Y2       -0.30502  -0.00411   0.00000  -0.01759  -0.02639  -0.33140
    Z2       -0.05129  -0.00503   0.00000   0.03113   0.04538  -0.00591
    X3       -2.29057  -0.08616   0.00000  -0.08400  -0.09941  -2.38998
    Y3       -0.46698  -0.03973   0.00000   0.02577   0.05305  -0.41393
    Z3        0.00726  -0.00108   0.00000  -0.01497  -0.02169  -0.01443
    X4        2.24300   0.00208   0.00000   0.02570  -0.00576   2.23725
    Y4       -2.22026  -0.04707   0.00000  -0.12784  -0.13827  -2.35852
    Z4        0.10646   0.00013   0.00000  -0.03175  -0.01937   0.08709
    X5        3.64208   0.06681   0.00000   0.13055   0.12545   3.76753
    Y5        0.78455   0.05565   0.00000   0.16067   0.13786   0.92241
    Z5        0.17651   0.00658   0.00000  -0.04401  -0.02008   0.15643
    X6       -0.23186  -0.01397   0.00000  -0.07332  -0.06238  -0.29424
    Y6        2.85365  -0.01020   0.00000  -0.03787  -0.02747   2.82618
    Z6        0.00103  -0.00075   0.00000  -0.01875  -0.01133  -0.01030
         Item               Value     Threshold  Converged?
 Maximum Force            0.123682     0.000450     NO 
 RMS     Force            0.050045     0.000300     NO 
 Maximum Displacement     0.138269     0.001800     NO 
 RMS     Displacement     0.066237     0.001200     NO 
 Predicted change in Energy=-1.874434D-02
 GradGradGradGradGradGradGradGradGradGradGradGradGradGradGradGradGradGrad

 1\1\GINC-CLODOMIRA\Force\RTD-PBEPBE-FC\Gen\C1H3N1O1\DIEGOA\31-Oct-2019
 \0\\# pbepbe/Gen force nosymm td(root=2,nstates=10)\\Title\\0,1\C,-0.1
 60692,0.392739,0.001494\N,1.09565,-0.161408,-0.027139\O,-1.212119,-0.2
 47115,0.00384\H,1.186947,-1.174909,0.056337\H,1.927306,0.415168,0.0934
 05\H,-0.122697,1.510087,0.000544\\Version=EM64L-G09RevA.01\HF=-169.729
 3609\RMSD=7.999e-09\RMSF=5.004e-02\Dipole=-0.5740164,0.3794602,0.00253
 83\PG=C01 [X(C1H3N1O1)]\\@


 ONLY A FOOL KNOWS EVERYTHING.

               -- THE CHEMIST ANALYST, SEPTEMBER 1946
 Job cpu time:  0 days  0 hours  6 minutes 25.3 seconds.
 File lengths (MBytes):  RWF=     13 Int=      0 D2E=      0 Chk=      4 Scr=      1
 Normal termination of Gaussian 09 at Thu Oct 31 19:26:40 2019.
