Title                                                                   
Force     RTD-PBEPBE-FC                                               Gen                 
Number of atoms                            I                6
Info1-9                                    I   N=           9
          93          93           0           0           0         100
           5         218         901
Charge                                     I                0
Multiplicity                               I                1
Number of electrons                        I               24
Number of alpha electrons                  I               12
Number of beta electrons                   I               12
Number of basis functions                  I               48
Number of independent functions            I               48
Number of point charges in /Mol/           I                0
Number of translation vectors              I                0
Atomic numbers                             I   N=           6
           6           7           8           1           1           1
Nuclear charges                            R   N=           6
  6.00000000E+00  7.00000000E+00  8.00000000E+00  1.00000000E+00  1.00000000E+00
  1.00000000E+00
Current cartesian coordinates              R   N=          18
 -3.03663872E-01  7.42169152E-01  2.82325084E-03  2.07047844E+00 -3.05016916E-01
 -5.12852775E-02 -2.29057295E+00 -4.66979673E-01  7.25654835E-03  2.24300476E+00
 -2.22025624E+00  1.06461501E-01  3.64208051E+00  7.84553819E-01  1.76509869E-01
 -2.31863727E-01  2.85365087E+00  1.02801102E-03
Force Field                                I                0
Int Atom Types                             I   N=           6
           0           0           0           0           0           0
MM charges                                 R   N=           6
  0.00000000E+00  0.00000000E+00  0.00000000E+00  0.00000000E+00  0.00000000E+00
  0.00000000E+00
Integer atomic weights                     I   N=           6
          12          14          16           1           1           1
Real atomic weights                        R   N=           6
  1.20000000E+01  1.40030740E+01  1.59949146E+01  1.00782504E+00  1.00782504E+00
  1.00782504E+00
Atom fragment info                         I   N=           6
           0           0           0           0           0           0
Atom residue num                           I   N=           6
           0           0           0           0           0           0
Nuclear spins                              I   N=           6
           0           2           0           1           1           1
Nuclear ZEff                               R   N=           6
 -3.60000000E+00 -4.55000000E+00 -5.60000000E+00 -1.00000000E+00 -1.00000000E+00
 -1.00000000E+00
Nuclear QMom                               R   N=           6
  0.00000000E+00  2.04400000E+00  0.00000000E+00  0.00000000E+00  0.00000000E+00
  0.00000000E+00
Nuclear GFac                               R   N=           6
  0.00000000E+00  4.03761000E-01  0.00000000E+00  2.79284600E+00  2.79284600E+00
  2.79284600E+00
MicOpt                                     I   N=           6
          -1          -1          -1          -1          -1          -1
Number of contracted shells                I               24
Number of primitive shells                 I               60
Pure/Cartesian d shells                    I                0
Pure/Cartesian f shells                    I                0
Highest angular momentum                   I                2
Largest degree of contraction              I                6
Shell types                                I   N=          24
           0           0           0           1           1          -2
           0           0           0           1           1          -2
           0           0           0           1           1          -2
           0           0           0           0           0           0
Number of primitives per shell             I   N=          24
           6           2           1           4           1           1
           6           2           1           4           1           1
           6           2           1           4           1           1
           4           1           4           1           4           1
Shell to atom map                          I   N=          24
           1           1           1           1           1           1
           2           2           2           2           2           2
           3           3           3           3           3           3
           4           4           5           5           6           6
Primitive exponents                        R   N=          60
  2.80806450E+03  4.21138280E+02  9.55866160E+01  2.67390040E+01  8.43282680E+00
  2.76058210E+00  5.44700450E+00  4.79242200E-01  1.46156500E-01  1.81308520E+01
  4.09988320E+00  1.18583700E+00  3.68597400E-01  1.09720000E-01  6.00000000E-01
  3.84541490E+03  5.77533230E+02  1.31319830E+02  3.68237810E+01  1.16701150E+01
  3.85426040E+00  7.82956110E+00  6.87735100E-01  2.04038800E-01  2.68098410E+01
  6.06815400E+00  1.76762560E+00  5.46672700E-01  1.58728900E-01  7.00000000E-01
  5.22290220E+03  7.82539940E+02  1.77267430E+02  4.95166880E+01  1.56664400E+01
  5.17935990E+00  1.06014410E+01  9.42317000E-01  2.77474600E-01  3.34241260E+01
  7.62217140E+00  2.23820930E+00  6.86730000E-01  1.93813500E-01  8.00000000E-01
  5.09991780E+01  7.48321810E+00  1.77746760E+00  5.19329500E-01  1.54110000E-01
  5.09991780E+01  7.48321810E+00  1.77746760E+00  5.19329500E-01  1.54110000E-01
  5.09991780E+01  7.48321810E+00  1.77746760E+00  5.19329500E-01  1.54110000E-01
Contraction coefficients                   R   N=          60
  2.01780002E-03  1.54332002E-02  7.55815007E-02  2.47828202E-01  4.79372505E-01
  3.33834403E-01 -1.43534074E-01  1.04912299E+00  1.00000000E+00  2.03187183E-02
  1.22623062E-01  3.90762298E-01  6.32450946E-01  1.00000000E+00  1.00000000E+00
  2.01860013E-03  1.54078010E-02  7.53714047E-02  2.48212215E-01  4.79827430E-01
  3.31801221E-01 -1.44112511E-01  1.04922215E+00  1.00000000E+00  1.97958777E-02
  1.23436666E-01  3.94682415E-01  6.28653093E-01  1.00000000E+00  1.00000000E+00
 -1.93639996E-03 -1.48506997E-02 -7.33186984E-02 -2.45116195E-01 -4.80284690E-01
 -3.35942693E-01  1.45779125E-01 -1.05015252E+00  1.00000000E+00  2.21293883E-02
  1.35634702E-01  4.07705086E-01  6.08954698E-01  1.00000000E+00  1.00000000E+00
  9.66049981E-03  7.37288986E-02  2.95858094E-01  7.15905286E-01  1.00000000E+00
  9.66049981E-03  7.37288986E-02  2.95858094E-01  7.15905286E-01  1.00000000E+00
  9.66049981E-03  7.37288986E-02  2.95858094E-01  7.15905286E-01  1.00000000E+00
Coordinates of each shell                  R   N=          72
 -3.03663872E-01  7.42169152E-01  2.82325084E-03 -3.03663872E-01  7.42169152E-01
  2.82325084E-03 -3.03663872E-01  7.42169152E-01  2.82325084E-03 -3.03663872E-01
  7.42169152E-01  2.82325084E-03 -3.03663872E-01  7.42169152E-01  2.82325084E-03
 -3.03663872E-01  7.42169152E-01  2.82325084E-03  2.07047844E+00 -3.05016916E-01
 -5.12852775E-02  2.07047844E+00 -3.05016916E-01 -5.12852775E-02  2.07047844E+00
 -3.05016916E-01 -5.12852775E-02  2.07047844E+00 -3.05016916E-01 -5.12852775E-02
  2.07047844E+00 -3.05016916E-01 -5.12852775E-02  2.07047844E+00 -3.05016916E-01
 -5.12852775E-02 -2.29057295E+00 -4.66979673E-01  7.25654835E-03 -2.29057295E+00
 -4.66979673E-01  7.25654835E-03 -2.29057295E+00 -4.66979673E-01  7.25654835E-03
 -2.29057295E+00 -4.66979673E-01  7.25654835E-03 -2.29057295E+00 -4.66979673E-01
  7.25654835E-03 -2.29057295E+00 -4.66979673E-01  7.25654835E-03  2.24300476E+00
 -2.22025624E+00  1.06461501E-01  2.24300476E+00 -2.22025624E+00  1.06461501E-01
  3.64208051E+00  7.84553819E-01  1.76509869E-01  3.64208051E+00  7.84553819E-01
  1.76509869E-01 -2.31863727E-01  2.85365087E+00  1.02801102E-03 -2.31863727E-01
  2.85365087E+00  1.02801102E-03
Density Number of contracted shells        I               72
Density Number of primitive shells         I               72
Density Pure/Cartesian d shells            I                0
Density Pure/Cartesian f shells            I                0
Density Highest angular momentum           I                3
Density Largest degree of contraction      I                1
Density Shell types                        I   N=          72
           0           0           0          -1          -2          -1
          -2          -1          -2          -1          -2          -1
          -2          -1          -2          -3          -1          -2
          -3           0           0           0          -1          -2
          -1          -2          -1          -2          -1          -2
          -1          -2          -1          -2          -3          -1
          -2          -3           0           0           0          -1
          -2          -1          -2          -1          -2          -1
          -2          -1          -2          -1          -2          -3
          -1          -2          -3           0           0           0
           0           0           0           0           0           0
           0           0           0           0           0           0
Density Number of primitives per shell     I   N=          72
           1           1           1           1           1           1
           1           1           1           1           1           1
           1           1           1           1           1           1
           1           1           1           1           1           1
           1           1           1           1           1           1
           1           1           1           1           1           1
           1           1           1           1           1           1
           1           1           1           1           1           1
           1           1           1           1           1           1
           1           1           1           1           1           1
           1           1           1           1           1           1
           1           1           1           1           1           1
Density Shell to atom map                  I   N=          72
           1           1           1           1           1           1
           1           1           1           1           1           1
           1           1           1           1           1           1
           1           2           2           2           2           2
           2           2           2           2           2           2
           2           2           2           2           2           2
           2           2           3           3           3           3
           3           3           3           3           3           3
           3           3           3           3           3           3
           3           3           3           4           4           4
           4           4           5           5           5           5
           5           6           6           6           6           6
Density Primitive exponents                R   N=          72
  5.61612900E+03  8.42276560E+02  1.91173232E+02  4.40363906E+01  4.40363906E+01
  1.68656536E+01  1.68656536E+01  9.45136651E+00  9.45136651E+00  5.52116420E+00
  5.52116420E+00  2.37167400E+00  2.37167400E+00  8.89165708E-01  8.89165708E-01
  8.89165708E-01  2.53268957E-01  2.53268957E-01  2.53268957E-01  7.69082980E+03
  1.15506646E+03  2.62639660E+02  6.28407420E+01  6.28407420E+01  2.33402300E+01
  2.33402300E+01  1.37856422E+01  1.37856422E+01  7.70852080E+00  7.70852080E+00
  3.53525120E+00  3.53525120E+00  1.23175262E+00  1.23175262E+00  1.23175262E+00
  3.59926961E-01  3.59926961E-01  3.59926961E-01  1.04458044E+04  1.56507988E+03
  3.54534860E+02  8.13646611E+01  8.13646611E+01  3.13328800E+01  3.13328800E+01
  1.79784316E+01  1.79784316E+01  1.03587198E+01  1.03587198E+01  4.47641860E+00
  4.47641860E+00  1.67146586E+00  1.67146586E+00  1.67146586E+00  4.63803076E-01
  4.63803076E-01  4.63803076E-01  1.01998356E+02  1.49664362E+01  3.55493520E+00
  1.03865900E+00  3.08220000E-01  1.01998356E+02  1.49664362E+01  3.55493520E+00
  1.03865900E+00  3.08220000E-01  1.01998356E+02  1.49664362E+01  3.55493520E+00
  1.03865900E+00  3.08220000E-01
Density Contraction coefficients           R   N=          72
  1.00000000E+00  1.00000000E+00  1.00000000E+00  1.00000000E+00  1.00000000E+00
  1.00000000E+00  1.00000000E+00  1.00000000E+00  1.00000000E+00  1.00000000E+00
  1.00000000E+00  1.00000000E+00  1.00000000E+00  1.00000000E+00  1.00000000E+00
  1.00000000E+00  1.00000000E+00  1.00000000E+00  1.00000000E+00  1.00000000E+00
  1.00000000E+00  1.00000000E+00  1.00000000E+00  1.00000000E+00  1.00000000E+00
  1.00000000E+00  1.00000000E+00  1.00000000E+00  1.00000000E+00  1.00000000E+00
  1.00000000E+00  1.00000000E+00  1.00000000E+00  1.00000000E+00  1.00000000E+00
  1.00000000E+00  1.00000000E+00  1.00000000E+00  1.00000000E+00  1.00000000E+00
  1.00000000E+00  1.00000000E+00  1.00000000E+00  1.00000000E+00  1.00000000E+00
  1.00000000E+00  1.00000000E+00  1.00000000E+00  1.00000000E+00  1.00000000E+00
  1.00000000E+00  1.00000000E+00  1.00000000E+00  1.00000000E+00  1.00000000E+00
  1.00000000E+00  1.00000000E+00  1.00000000E+00  1.00000000E+00  1.00000000E+00
  1.00000000E+00  1.00000000E+00  1.00000000E+00  1.00000000E+00  1.00000000E+00
  1.00000000E+00  1.00000000E+00  1.00000000E+00  1.00000000E+00  1.00000000E+00
  1.00000000E+00  1.00000000E+00
Density P(S=P) Contraction coefficients    R   N=          72
  0.00000000E+00  0.00000000E+00  0.00000000E+00  1.00000000E+00  0.00000000E+00
  1.00000000E+00  0.00000000E+00  1.00000000E+00  0.00000000E+00  1.00000000E+00
  0.00000000E+00  1.00000000E+00  0.00000000E+00  1.00000000E+00  0.00000000E+00
  0.00000000E+00  1.00000000E+00  0.00000000E+00  0.00000000E+00  0.00000000E+00
  0.00000000E+00  0.00000000E+00  1.00000000E+00  0.00000000E+00  1.00000000E+00
  0.00000000E+00  1.00000000E+00  0.00000000E+00  1.00000000E+00  0.00000000E+00
  1.00000000E+00  0.00000000E+00  1.00000000E+00  0.00000000E+00  0.00000000E+00
  1.00000000E+00  0.00000000E+00  0.00000000E+00  0.00000000E+00  0.00000000E+00
  0.00000000E+00  1.00000000E+00  0.00000000E+00  1.00000000E+00  0.00000000E+00
  1.00000000E+00  0.00000000E+00  1.00000000E+00  0.00000000E+00  1.00000000E+00
  0.00000000E+00  1.00000000E+00  0.00000000E+00  0.00000000E+00  1.00000000E+00
  0.00000000E+00  0.00000000E+00  0.00000000E+00  0.00000000E+00  0.00000000E+00
  0.00000000E+00  0.00000000E+00  0.00000000E+00  0.00000000E+00  0.00000000E+00
  0.00000000E+00  0.00000000E+00  0.00000000E+00  0.00000000E+00  0.00000000E+00
  0.00000000E+00  0.00000000E+00
Density Coordinates of each shell          R   N=         216
 -3.03663872E-01  7.42169152E-01  2.82325084E-03 -3.03663872E-01  7.42169152E-01
  2.82325084E-03 -3.03663872E-01  7.42169152E-01  2.82325084E-03 -3.03663872E-01
  7.42169152E-01  2.82325084E-03 -3.03663872E-01  7.42169152E-01  2.82325084E-03
 -3.03663872E-01  7.42169152E-01  2.82325084E-03 -3.03663872E-01  7.42169152E-01
  2.82325084E-03 -3.03663872E-01  7.42169152E-01  2.82325084E-03 -3.03663872E-01
  7.42169152E-01  2.82325084E-03 -3.03663872E-01  7.42169152E-01  2.82325084E-03
 -3.03663872E-01  7.42169152E-01  2.82325084E-03 -3.03663872E-01  7.42169152E-01
  2.82325084E-03 -3.03663872E-01  7.42169152E-01  2.82325084E-03 -3.03663872E-01
  7.42169152E-01  2.82325084E-03 -3.03663872E-01  7.42169152E-01  2.82325084E-03
 -3.03663872E-01  7.42169152E-01  2.82325084E-03 -3.03663872E-01  7.42169152E-01
  2.82325084E-03 -3.03663872E-01  7.42169152E-01  2.82325084E-03 -3.03663872E-01
  7.42169152E-01  2.82325084E-03  2.07047844E+00 -3.05016916E-01 -5.12852775E-02
  2.07047844E+00 -3.05016916E-01 -5.12852775E-02  2.07047844E+00 -3.05016916E-01
 -5.12852775E-02  2.07047844E+00 -3.05016916E-01 -5.12852775E-02  2.07047844E+00
 -3.05016916E-01 -5.12852775E-02  2.07047844E+00 -3.05016916E-01 -5.12852775E-02
  2.07047844E+00 -3.05016916E-01 -5.12852775E-02  2.07047844E+00 -3.05016916E-01
 -5.12852775E-02  2.07047844E+00 -3.05016916E-01 -5.12852775E-02  2.07047844E+00
 -3.05016916E-01 -5.12852775E-02  2.07047844E+00 -3.05016916E-01 -5.12852775E-02
  2.07047844E+00 -3.05016916E-01 -5.12852775E-02  2.07047844E+00 -3.05016916E-01
 -5.12852775E-02  2.07047844E+00 -3.05016916E-01 -5.12852775E-02  2.07047844E+00
 -3.05016916E-01 -5.12852775E-02  2.07047844E+00 -3.05016916E-01 -5.12852775E-02
  2.07047844E+00 -3.05016916E-01 -5.12852775E-02  2.07047844E+00 -3.05016916E-01
 -5.12852775E-02  2.07047844E+00 -3.05016916E-01 -5.12852775E-02 -2.29057295E+00
 -4.66979673E-01  7.25654835E-03 -2.29057295E+00 -4.66979673E-01  7.25654835E-03
 -2.29057295E+00 -4.66979673E-01  7.25654835E-03 -2.29057295E+00 -4.66979673E-01
  7.25654835E-03 -2.29057295E+00 -4.66979673E-01  7.25654835E-03 -2.29057295E+00
 -4.66979673E-01  7.25654835E-03 -2.29057295E+00 -4.66979673E-01  7.25654835E-03
 -2.29057295E+00 -4.66979673E-01  7.25654835E-03 -2.29057295E+00 -4.66979673E-01
  7.25654835E-03 -2.29057295E+00 -4.66979673E-01  7.25654835E-03 -2.29057295E+00
 -4.66979673E-01  7.25654835E-03 -2.29057295E+00 -4.66979673E-01  7.25654835E-03
 -2.29057295E+00 -4.66979673E-01  7.25654835E-03 -2.29057295E+00 -4.66979673E-01
  7.25654835E-03 -2.29057295E+00 -4.66979673E-01  7.25654835E-03 -2.29057295E+00
 -4.66979673E-01  7.25654835E-03 -2.29057295E+00 -4.66979673E-01  7.25654835E-03
 -2.29057295E+00 -4.66979673E-01  7.25654835E-03 -2.29057295E+00 -4.66979673E-01
  7.25654835E-03  2.24300476E+00 -2.22025624E+00  1.06461501E-01  2.24300476E+00
 -2.22025624E+00  1.06461501E-01  2.24300476E+00 -2.22025624E+00  1.06461501E-01
  2.24300476E+00 -2.22025624E+00  1.06461501E-01  2.24300476E+00 -2.22025624E+00
  1.06461501E-01  3.64208051E+00  7.84553819E-01  1.76509869E-01  3.64208051E+00
  7.84553819E-01  1.76509869E-01  3.64208051E+00  7.84553819E-01  1.76509869E-01
  3.64208051E+00  7.84553819E-01  1.76509869E-01  3.64208051E+00  7.84553819E-01
  1.76509869E-01 -2.31863727E-01  2.85365087E+00  1.02801102E-03 -2.31863727E-01
  2.85365087E+00  1.02801102E-03 -2.31863727E-01  2.85365087E+00  1.02801102E-03
 -2.31863727E-01  2.85365087E+00  1.02801102E-03 -2.31863727E-01  2.85365087E+00
  1.02801102E-03
Constraint Structure                       R   N=          18
 -3.03663872E-01  7.42169152E-01  2.82325084E-03  2.07047844E+00 -3.05016916E-01
 -5.12852775E-02 -2.29057295E+00 -4.66979673E-01  7.25654835E-03  2.24300476E+00
 -2.22025624E+00  1.06461501E-01  3.64208051E+00  7.84553819E-01  1.76509869E-01
 -2.31863727E-01  2.85365087E+00  1.02801102E-03
Num ILSW                                   I              100
ILSW                                       I   N=         100
           0           0           0           0           2           0
           0           0           0           0        1009          -1
           0           0           0           0           0           0
           0           0           1           0           1           0
           1           1           0           0           0           0
           0           0      100000           0          -1           0
           0           0           0           0           0           0
           0           0           0           1           0           0
           0           0           1           0           0           0
           0           0           4          40           0           0
           0           0           0           0           0           0
           0           0           0           0           0           0
           0           0           0           0           0           0
           0           0           0           0           0           0
           0           0           0           0           0           0
           0           0           0           0           0           0
           0           0           0           0
Num RLSW                                   I               40
RLSW                                       R   N=          40
  1.00000000E+00  1.00000000E+00  1.00000000E+00  1.00000000E+00  0.00000000E+00
  0.00000000E+00  0.00000000E+00  1.00000000E+00  0.00000000E+00  0.00000000E+00
  0.00000000E+00  0.00000000E+00  1.00000000E+00  0.00000000E+00  0.00000000E+00
  0.00000000E+00  0.00000000E+00  1.00000000E+00  0.00000000E+00  0.00000000E+00
  0.00000000E+00  0.00000000E+00  1.00000000E+00  0.00000000E+00  0.00000000E+00
  0.00000000E+00  0.00000000E+00  1.00000000E+00  0.00000000E+00  0.00000000E+00
  0.00000000E+00  0.00000000E+00  0.00000000E+00  0.00000000E+00  0.00000000E+00
  0.00000000E+00  0.00000000E+00  0.00000000E+00  1.00000000E+00  1.00000000E+00
MxBond                                     I                3
NBond                                      I   N=           6
           3           3           1           1           1           1
IBond                                      I   N=          18
           2           3           6           1           4           5
           1           0           0           2           0           0
           2           0           0           1           0           0
RBond                                      R   N=          18
  1.00000000E+00  2.00000000E+00  1.00000000E+00  1.00000000E+00  1.00000000E+00
  1.00000000E+00  2.00000000E+00  0.00000000E+00  0.00000000E+00  1.00000000E+00
  0.00000000E+00  0.00000000E+00  1.00000000E+00  0.00000000E+00  0.00000000E+00
  1.00000000E+00  0.00000000E+00  0.00000000E+00
Virial Ratio                               R      2.012999842705778E+00
SCF Energy                                 R     -1.697293608606971E+02
CIS Energy                                 R     -1.694351686169540E+02
Total Energy                               R     -1.694351686169540E+02
Post-SCF wavefunction norm                 R      1.000000000000000E+00
RMS Force                                  R      6.968456632062825E-02
RMS Density                                R      7.998526152940488E-09
External E-field                           R   N=          35
  0.00000000E+00  0.00000000E+00  0.00000000E+00  0.00000000E+00  0.00000000E+00
  0.00000000E+00  0.00000000E+00  0.00000000E+00  0.00000000E+00  0.00000000E+00
  0.00000000E+00  0.00000000E+00  0.00000000E+00  0.00000000E+00  0.00000000E+00
  0.00000000E+00  0.00000000E+00  0.00000000E+00  0.00000000E+00  0.00000000E+00
  0.00000000E+00  0.00000000E+00  0.00000000E+00  0.00000000E+00  0.00000000E+00
  0.00000000E+00  0.00000000E+00  0.00000000E+00  0.00000000E+00  0.00000000E+00
  0.00000000E+00  0.00000000E+00  0.00000000E+00  0.00000000E+00  0.00000000E+00
IOpCl                                      I                0
IROHF                                      I                0
Alpha Orbital Energies                     R   N=          48
 -1.87400048E+01 -1.40338583E+01 -1.00101300E+01 -9.44274370E-01 -8.33830884E-01
 -5.71019836E-01 -5.07425780E-01 -4.30520611E-01 -3.63110175E-01 -3.59055188E-01
 -2.42791141E-01 -2.14899316E-01 -2.30141776E-02  3.95560567E-02  7.37273819E-02
  1.26137679E-01  1.77473254E-01  2.61991421E-01  2.75454854E-01  2.96939878E-01
  4.12916088E-01  4.49498173E-01  4.62107075E-01  5.06770523E-01  5.67122061E-01
  6.46626617E-01  6.83288169E-01  7.04589298E-01  7.55031622E-01  8.15831284E-01
  9.24305400E-01  1.07341666E+00  1.13624458E+00  1.15235288E+00  1.38418660E+00
  1.43348253E+00  1.54532192E+00  1.60251982E+00  1.70734940E+00  1.83904091E+00
  1.88410027E+00  1.95896398E+00  1.99035160E+00  2.08815358E+00  2.23002995E+00
  2.32797731E+00  2.52506861E+00  2.69146257E+00
Alpha MO coefficients                      R   N=        2304
  1.57934588E-06  4.45727341E-04  8.38655652E-04 -5.02870995E-04 -3.71588514E-04
 -5.21660120E-07 -4.05733899E-04 -7.70233985E-04 -2.32185113E-06 -1.25970602E-04
 -2.37852314E-06  1.87846330E-06  3.44972310E-05  1.03982804E-04  6.02874603E-06
  5.75331912E-05 -2.84998100E-04  2.31576833E-05 -2.20140194E-05 -1.45913037E-06
  3.19014464E-04  3.24197884E-04  3.35171382E-06  1.96821590E-05  3.70603394E-06
  7.50879322E-06 -3.63685940E-05 -3.49639129E-06  9.98276639E-01  5.63726968E-03
 -1.74125193E-03 -1.12901592E-03 -6.41314039E-04  3.71625859E-06 -1.83383455E-04
 -3.06755683E-05 -1.42137303E-06  1.57627674E-04  6.58240976E-07  6.58896469E-07
 -1.54281677E-04 -2.72620232E-04  6.67063785E-05  4.12189543E-05 -3.01230999E-05
 -1.04508296E-04 -7.18881926E-05  3.81385523E-04 -3.34115905E-05  2.04705226E-05
 -7.31933518E-05  6.74770691E-05 -2.34761268E-05 -6.82299960E-06 -2.07317348E-04
  4.45834150E-04  3.72249964E-05 -1.86541097E-04 -3.32947826E-05  7.48446232E-06
  4.30179978E-04 -3.56838263E-04  9.98374513E-01  5.52712007E-03  7.93566897E-04
  2.56937356E-04 -9.56254196E-05  2.02999665E-04 -1.80575547E-04 -3.69001181E-05
 -6.48377808E-05 -9.68338062E-05  1.68762191E-05 -1.61420150E-06 -5.71440280E-05
  1.12248193E-04  1.93971259E-06 -3.73253581E-05  8.76914290E-06  5.57066186E-05
 -3.99842027E-05 -2.13330238E-06  7.69847644E-05 -2.35208931E-04 -1.42762842E-05
  3.92173145E-05 -4.29851367E-06 -8.12484577E-06  1.73820593E-04 -8.16064058E-05
 -1.87611655E-05 -1.70475241E-04 -2.75027763E-05 -1.24543456E-04  1.79209798E-04
 -3.93054093E-04  9.98547895E-01  3.96668447E-03 -1.95092509E-03  5.10592486E-04
  4.05048776E-04 -1.38170262E-05 -3.17591416E-04  2.94608789E-04  2.58445442E-05
  4.35190018E-04  1.62291567E-05  5.62120139E-07 -5.02696537E-04 -1.70795794E-04
 -1.71079623E-04 -1.61373143E-04  1.30344283E-03 -4.96880016E-04  2.16141302E-04
  1.42348642E-05 -6.55002204E-04  7.87285897E-04 -5.12619532E-06 -5.03481333E-04
 -3.54546620E-05  2.64734207E-05  5.25381517E-04 -7.56138399E-04  2.75727450E-04
  7.96450616E-05  1.88061479E-03  9.03815619E-04  6.02914275E-04  1.33467910E-06
  8.17083525E-04  5.74345464E-04 -5.24575955E-06 -6.70589582E-04  1.67721688E-06
  1.11614334E-06  3.89794252E-04  1.08455049E-03  3.42200741E-05  4.76137254E-04
  4.74129040E-06 -1.06842566E-04  4.16072659E-04 -2.32968491E-04  1.37568166E-01
 -2.75944703E-01 -9.12147468E-02  1.17171413E-01  1.11230422E-01  3.15374480E-04
 -1.23208394E-03 -2.01508759E-02 -2.23375822E-04  1.72754778E-02  4.89415832E-05
 -2.37277522E-05 -1.07479091E-02 -1.79940848E-02  6.87307326E-02 -1.43016805E-01
 -1.13868365E-01  4.83930938E-02 -7.07861431E-03 -6.03483491E-03  9.19972907E-03
 -6.90214588E-03 -2.07990578E-03  7.82269013E-03 -2.76370591E-04 -4.03074505E-05
 -4.07158214E-03  4.76413687E-04 -1.91064748E-01  4.02477212E-01 -2.97756106E-01
 -1.54056471E-01 -8.60501519E-02  3.76167142E-04 -8.68378616E-03  6.76591850E-04
  1.07977473E-05  6.74827923E-03  5.60376683E-05  1.80306948E-05 -8.06596284E-03
 -1.33638280E-02 -3.36305751E-02 -4.58196631E-03 -2.71055843E-02  9.55165061E-03
 -3.65862321E-02  1.46839707E-02 -3.39191306E-02  7.16388504E-02  2.60496291E-02
  2.30027070E-01  4.11337676E-03 -1.25819849E-03  6.25952292E-03 -2.94289679E-03
 -6.21133299E-04 -4.73267273E-03  5.11735925E-05  8.18563212E-05  5.61101899E-03
 -2.26806514E-02 -2.04660648E-01  4.34617911E-01  3.33823028E-01 -6.09355456E-03
  1.77506401E-02  2.23997874E-02  2.67727964E-02 -2.09538283E-03  6.82879912E-03
 -1.74390834E-02  2.42621637E-03  4.61089162E-05 -4.29954568E-03  2.45756384E-03
 -9.19749918E-02  1.97922443E-01 -1.45401293E-01 -4.33681455E-02 -4.40779005E-02
  3.12949170E-05  7.88949756E-03  3.09444531E-03 -3.21316485E-05  2.10914054E-03
  2.46821239E-05  4.64855929E-05 -7.24549366E-06 -6.03361481E-03  1.18999665E-01
 -6.07335931E-03  1.28635694E-01 -8.69455842E-03  1.93380567E-02  7.76855995E-03
 -1.41079183E-01  3.24070019E-01  1.74136130E-01  1.90225548E-01  1.42276393E-01
 -8.32174102E-03  2.97534667E-02  4.38852675E-02  2.02055713E-03 -7.25819718E-03
 -1.46162781E-03  5.86567148E-04 -5.98550196E-03 -4.86606275E-03  4.87499870E-02
 -1.08141490E-01 -1.41711303E-01 -2.92989470E-01  2.59743362E-01 -2.22947342E-02
 -8.40345051E-02  7.44749217E-02 -8.27167031E-03  4.86203973E-03 -3.88135740E-03
  2.99160307E-03  7.34205769E-03 -1.15858881E-02 -6.58333356E-02  1.48065766E-01
 -1.35859160E-01  3.68080780E-02  3.98187603E-02 -2.25796884E-03  2.25425798E-02
  1.87392567E-02 -1.44458977E-03 -1.60673561E-03 -3.14909360E-04 -2.31671918E-04
 -8.33930126E-04  2.81365020E-03 -1.74002052E-01 -3.51563630E-02 -8.72414359E-02
 -2.58183090E-02  1.60843789E-01  2.76337352E-02  1.68196361E-02 -4.25455455E-02
 -2.85552435E-03 -1.08990053E-01  2.32030533E-01  1.02969533E-02 -1.72493528E-02
  1.26641647E-02  8.45542752E-04 -8.59813040E-04  1.17617637E-03 -7.52969597E-04
  9.47649384E-03  1.99824305E-02 -7.09066394E-04  1.85476159E-04  1.83957747E-02
  3.89490838E-01  3.32536573E-01  2.21194055E-02  1.13694676E-01  1.24058836E-01
  7.16517803E-03 -1.91314352E-03  5.32866341E-03  5.23346695E-03  7.11548888E-03
  1.31135690E-02  3.11555259E-02 -6.90952601E-02  7.75213456E-02 -9.24686204E-02
  6.44741680E-02  4.03808667E-03 -2.70008864E-02  1.36828509E-02  6.21598806E-04
  2.97391851E-03  3.43478077E-04  2.24179156E-04 -9.04645864E-03  1.51309775E-03
 -1.47987842E-01 -3.27056813E-02  2.66879841E-01  9.24110158E-02  7.98711444E-02
  4.24237192E-02  5.46656266E-02 -1.29623318E-01 -1.32448916E-01  2.49657605E-01
 -3.22907404E-01 -1.37503643E-02 -3.43673374E-03 -8.89192189E-02 -6.85162634E-04
  5.39926538E-05 -1.13515009E-03  5.49115502E-04  2.38893982E-02  2.06834359E-03
 -1.63570482E-02  3.78173266E-02  2.29180854E-02 -1.44357068E-01  3.42695026E-01
 -1.22554098E-02 -4.67590151E-02  1.35389648E-01 -6.92662999E-03  2.28272244E-03
 -7.27476234E-04  4.40182043E-03  1.62063926E-02  9.70634951E-03  5.43743048E-02
 -1.21373695E-01  1.57465456E-01 -4.72942758E-02 -2.38808730E-01 -6.85548021E-03
 -1.47396185E-02 -6.79233852E-02 -2.69961115E-03  5.03154831E-03 -6.15021426E-04