Title                                                                   
Force     RTD-B3LYP-FC                                                6-31G(d)            
Number of atoms                            I                6
Info1-9                                    I   N=           9
          14          14           0           0           0         100
           5         218        -501
Charge                                     I                0
Multiplicity                               I                1
Number of electrons                        I               24
Number of alpha electrons                  I               12
Number of beta electrons                   I               12
Number of basis functions                  I               51
Number of independent functions            I               51
Number of point charges in /Mol/           I                0
Number of translation vectors              I                0
Atomic numbers                             I   N=           6
           6           7           8           1           1           1
Nuclear charges                            R   N=           6
  6.00000000E+00  7.00000000E+00  8.00000000E+00  1.00000000E+00  1.00000000E+00
  1.00000000E+00
Current cartesian coordinates              R   N=          18
 -3.04381968E-01  7.36998861E-01 -1.70075352E-05  2.06207294E+00 -3.03129079E-01
 -1.45508912E-04 -2.28436142E+00 -4.64262247E-01  3.21253443E-05  2.24271375E+00
 -2.21938508E+00  2.75900015E-04  3.64747379E+00  7.81900644E-01  5.65028114E-04
 -2.23518697E-01  2.85150225E+00  1.88972613E-05
Force Field                                I                0
Int Atom Types                             I   N=           6
           0           0           0           0           0           0
MM charges                                 R   N=           6
  0.00000000E+00  0.00000000E+00  0.00000000E+00  0.00000000E+00  0.00000000E+00
  0.00000000E+00
Integer atomic weights                     I   N=           6
          12          14          16           1           1           1
Real atomic weights                        R   N=           6
  1.20000000E+01  1.40030740E+01  1.59949146E+01  1.00782504E+00  1.00782504E+00
  1.00782504E+00
Atom fragment info                         I   N=           6
           0           0           0           0           0           0
Atom residue num                           I   N=           6
           0           0           0           0           0           0
Nuclear spins                              I   N=           6
           0           2           0           1           1           1
Nuclear ZEff                               R   N=           6
 -3.60000000E+00 -4.55000000E+00 -5.60000000E+00 -1.00000000E+00 -1.00000000E+00
 -1.00000000E+00
Nuclear QMom                               R   N=           6
  0.00000000E+00  2.04400000E+00  0.00000000E+00  0.00000000E+00  0.00000000E+00
  0.00000000E+00
Nuclear GFac                               R   N=           6
  0.00000000E+00  4.03761000E-01  0.00000000E+00  2.79284600E+00  2.79284600E+00
  2.79284600E+00
MicOpt                                     I   N=           6
          -1          -1          -1          -1          -1          -1
Number of contracted shells                I               18
Number of primitive shells                 I               45
Pure/Cartesian d shells                    I                1
Pure/Cartesian f shells                    I                0
Highest angular momentum                   I                2
Largest degree of contraction              I                6
Shell types                                I   N=          18
           0          -1          -1           2           0          -1
          -1           2           0          -1          -1           2
           0           0           0           0           0           0
Number of primitives per shell             I   N=          18
           6           3           1           1           6           3
           1           1           6           3           1           1
           3           1           3           1           3           1
Shell to atom map                          I   N=          18
           1           1           1           1           2           2
           2           2           3           3           3           3
           4           4           5           5           6           6
Primitive exponents                        R   N=          45
  3.04752488E+03  4.57369518E+02  1.03948685E+02  2.92101553E+01  9.28666296E+00
  3.16392696E+00  7.86827235E+00  1.88128854E+00  5.44249258E-01  1.68714478E-01
  8.00000000E-01  4.17351146E+03  6.27457911E+02  1.42902093E+02  4.02343293E+01
  1.28202129E+01  4.39043701E+00  1.16263619E+01  2.71627981E+00  7.72218397E-01
  2.12031498E-01  8.00000000E-01  5.48467166E+03  8.25234946E+02  1.88046958E+02
  5.29645000E+01  1.68975704E+01  5.79963534E+00  1.55396162E+01  3.59993359E+00
  1.01376175E+00  2.70005823E-01  8.00000000E-01  1.87311370E+01  2.82539436E+00
  6.40121692E-01  1.61277759E-01  1.87311370E+01  2.82539436E+00  6.40121692E-01
  1.61277759E-01  1.87311370E+01  2.82539436E+00  6.40121692E-01  1.61277759E-01
Contraction coefficients                   R   N=          45
  1.83473713E-03  1.40373228E-02  6.88426223E-02  2.32184443E-01  4.67941348E-01
  3.62311985E-01 -1.19332420E-01 -1.60854152E-01  1.14345644E+00  1.00000000E+00
  1.00000000E+00  1.83477216E-03  1.39946270E-02  6.85865518E-02  2.32240873E-01
  4.69069948E-01  3.60455199E-01 -1.14961182E-01 -1.69117479E-01  1.14585195E+00
  1.00000000E+00  1.00000000E+00  1.83107443E-03  1.39501722E-02  6.84450781E-02
  2.32714336E-01  4.70192898E-01  3.58520853E-01 -1.10777550E-01 -1.48026263E-01
  1.13076702E+00  1.00000000E+00  1.00000000E+00  3.34946043E-02  2.34726953E-01
  8.13757326E-01  1.00000000E+00  3.34946043E-02  2.34726953E-01  8.13757326E-01
  1.00000000E+00  3.34946043E-02  2.34726953E-01  8.13757326E-01  1.00000000E+00
P(S=P) Contraction coefficients            R   N=          45
  0.00000000E+00  0.00000000E+00  0.00000000E+00  0.00000000E+00  0.00000000E+00
  0.00000000E+00  6.89990666E-02  3.16423961E-01  7.44308291E-01  1.00000000E+00
  0.00000000E+00  0.00000000E+00  0.00000000E+00  0.00000000E+00  0.00000000E+00
  0.00000000E+00  0.00000000E+00  6.75797439E-02  3.23907296E-01  7.40895140E-01
  1.00000000E+00  0.00000000E+00  0.00000000E+00  0.00000000E+00  0.00000000E+00
  0.00000000E+00  0.00000000E+00  0.00000000E+00  7.08742682E-02  3.39752839E-01
  7.27158577E-01  1.00000000E+00  0.00000000E+00  0.00000000E+00  0.00000000E+00
  0.00000000E+00  0.00000000E+00  0.00000000E+00  0.00000000E+00  0.00000000E+00
  0.00000000E+00  0.00000000E+00  0.00000000E+00  0.00000000E+00  0.00000000E+00
Coordinates of each shell                  R   N=          54
 -3.04381968E-01  7.36998861E-01 -1.70075352E-05 -3.04381968E-01  7.36998861E-01
 -1.70075352E-05 -3.04381968E-01  7.36998861E-01 -1.70075352E-05 -3.04381968E-01
  7.36998861E-01 -1.70075352E-05  2.06207294E+00 -3.03129079E-01 -1.45508912E-04
  2.06207294E+00 -3.03129079E-01 -1.45508912E-04  2.06207294E+00 -3.03129079E-01
 -1.45508912E-04  2.06207294E+00 -3.03129079E-01 -1.45508912E-04 -2.28436142E+00
 -4.64262247E-01  3.21253443E-05 -2.28436142E+00 -4.64262247E-01  3.21253443E-05
 -2.28436142E+00 -4.64262247E-01  3.21253443E-05 -2.28436142E+00 -4.64262247E-01
  3.21253443E-05  2.24271375E+00 -2.21938508E+00  2.75900015E-04  2.24271375E+00
 -2.21938508E+00  2.75900015E-04  3.64747379E+00  7.81900644E-01  5.65028114E-04
  3.64747379E+00  7.81900644E-01  5.65028114E-04 -2.23518697E-01  2.85150225E+00
  1.88972613E-05 -2.23518697E-01  2.85150225E+00  1.88972613E-05
Density Number of contracted shells        I               60
Density Number of primitive shells         I               60
Density Pure/Cartesian d shells            I                0
Density Pure/Cartesian f shells            I                0
Density Highest angular momentum           I                3
Density Largest degree of contraction      I                1
Density Shell types                        I   N=          60
           0           0           0           0          -1          -2
          -1          -2          -1          -2          -1          -2
          -3          -1          -2          -3           0           0
           0           0          -1          -2          -1          -2
          -1          -2          -1          -2          -3          -1
          -2          -3           0           0           0           0
          -1          -2          -1          -2          -1          -2
          -1          -2          -3          -1          -2          -3
           0           0           0           0           0           0
           0           0           0           0           0           0
Density Number of primitives per shell     I   N=          60
           1           1           1           1           1           1
           1           1           1           1           1           1
           1           1           1           1           1           1
           1           1           1           1           1           1
           1           1           1           1           1           1
           1           1           1           1           1           1
           1           1           1           1           1           1
           1           1           1           1           1           1
           1           1           1           1           1           1
           1           1           1           1           1           1
Density Shell to atom map                  I   N=          60
           1           1           1           1           1           1
           1           1           1           1           1           1
           1           1           1           1           2           2
           2           2           2           2           2           2
           2           2           2           2           2           2
           2           2           3           3           3           3
           3           3           3           3           3           3
           3           3           3           3           3           3
           4           4           4           4           5           5
           5           5           6           6           6           6
Density Primitive exponents                R   N=          60
  6.09504976E+03  9.14739036E+02  2.07897370E+02  5.84203106E+01  1.70961976E+01
  1.70961976E+01  6.32785392E+00  6.32785392E+00  3.76257708E+00  3.76257708E+00
  1.31969604E+00  1.31969604E+00  1.31969604E+00  3.37428956E-01  3.37428956E-01
  3.37428956E-01  8.34702292E+03  1.25491582E+03  2.85804186E+02  8.04686586E+01
  2.44174064E+01  2.44174064E+01  8.78087402E+00  8.78087402E+00  5.43255961E+00
  5.43255961E+00  1.57197292E+00  1.57197292E+00  1.57197292E+00  4.24062995E-01
  4.24062995E-01  4.24062995E-01  1.09693433E+04  1.65046989E+03  3.76093916E+02
  1.05929000E+02  3.24087494E+01  3.24087494E+01  1.15992707E+01  1.15992707E+01
  7.19986717E+00  7.19986717E+00  1.80112121E+00  1.80112121E+00  1.80112121E+00
  5.40011645E-01  5.40011645E-01  5.40011645E-01  3.74622739E+01  5.65078873E+00
  1.28024338E+00  3.22555518E-01  3.74622739E+01  5.65078873E+00  1.28024338E+00
  3.22555518E-01  3.74622739E+01  5.65078873E+00  1.28024338E+00  3.22555518E-01
Density Contraction coefficients           R   N=          60
  1.00000000E+00  1.00000000E+00  1.00000000E+00  1.00000000E+00  1.00000000E+00
  1.00000000E+00  1.00000000E+00  1.00000000E+00  1.00000000E+00  1.00000000E+00
  1.00000000E+00  1.00000000E+00  1.00000000E+00  1.00000000E+00  1.00000000E+00
  1.00000000E+00  1.00000000E+00  1.00000000E+00  1.00000000E+00  1.00000000E+00
  1.00000000E+00  1.00000000E+00  1.00000000E+00  1.00000000E+00  1.00000000E+00
  1.00000000E+00  1.00000000E+00  1.00000000E+00  1.00000000E+00  1.00000000E+00
  1.00000000E+00  1.00000000E+00  1.00000000E+00  1.00000000E+00  1.00000000E+00
  1.00000000E+00  1.00000000E+00  1.00000000E+00  1.00000000E+00  1.00000000E+00
  1.00000000E+00  1.00000000E+00  1.00000000E+00  1.00000000E+00  1.00000000E+00
  1.00000000E+00  1.00000000E+00  1.00000000E+00  1.00000000E+00  1.00000000E+00
  1.00000000E+00  1.00000000E+00  1.00000000E+00  1.00000000E+00  1.00000000E+00
  1.00000000E+00  1.00000000E+00  1.00000000E+00  1.00000000E+00  1.00000000E+00
Density P(S=P) Contraction coefficients    R   N=          60
  0.00000000E+00  0.00000000E+00  0.00000000E+00  0.00000000E+00  1.00000000E+00
  0.00000000E+00  1.00000000E+00  0.00000000E+00  1.00000000E+00  0.00000000E+00
  1.00000000E+00  0.00000000E+00  0.00000000E+00  1.00000000E+00  0.00000000E+00
  0.00000000E+00  0.00000000E+00  0.00000000E+00  0.00000000E+00  0.00000000E+00
  1.00000000E+00  0.00000000E+00  1.00000000E+00  0.00000000E+00  1.00000000E+00
  0.00000000E+00  1.00000000E+00  0.00000000E+00  0.00000000E+00  1.00000000E+00
  0.00000000E+00  0.00000000E+00  0.00000000E+00  0.00000000E+00  0.00000000E+00
  0.00000000E+00  1.00000000E+00  0.00000000E+00  1.00000000E+00  0.00000000E+00
  1.00000000E+00  0.00000000E+00  1.00000000E+00  0.00000000E+00  0.00000000E+00
  1.00000000E+00  0.00000000E+00  0.00000000E+00  0.00000000E+00  0.00000000E+00
  0.00000000E+00  0.00000000E+00  0.00000000E+00  0.00000000E+00  0.00000000E+00
  0.00000000E+00  0.00000000E+00  0.00000000E+00  0.00000000E+00  0.00000000E+00
Density Coordinates of each shell          R   N=         180
 -3.04381968E-01  7.36998861E-01 -1.70075352E-05 -3.04381968E-01  7.36998861E-01
 -1.70075352E-05 -3.04381968E-01  7.36998861E-01 -1.70075352E-05 -3.04381968E-01
  7.36998861E-01 -1.70075352E-05 -3.04381968E-01  7.36998861E-01 -1.70075352E-05
 -3.04381968E-01  7.36998861E-01 -1.70075352E-05 -3.04381968E-01  7.36998861E-01
 -1.70075352E-05 -3.04381968E-01  7.36998861E-01 -1.70075352E-05 -3.04381968E-01
  7.36998861E-01 -1.70075352E-05 -3.04381968E-01  7.36998861E-01 -1.70075352E-05
 -3.04381968E-01  7.36998861E-01 -1.70075352E-05 -3.04381968E-01  7.36998861E-01
 -1.70075352E-05 -3.04381968E-01  7.36998861E-01 -1.70075352E-05 -3.04381968E-01
  7.36998861E-01 -1.70075352E-05 -3.04381968E-01  7.36998861E-01 -1.70075352E-05
 -3.04381968E-01  7.36998861E-01 -1.70075352E-05  2.06207294E+00 -3.03129079E-01
 -1.45508912E-04  2.06207294E+00 -3.03129079E-01 -1.45508912E-04  2.06207294E+00
 -3.03129079E-01 -1.45508912E-04  2.06207294E+00 -3.03129079E-01 -1.45508912E-04
  2.06207294E+00 -3.03129079E-01 -1.45508912E-04  2.06207294E+00 -3.03129079E-01
 -1.45508912E-04  2.06207294E+00 -3.03129079E-01 -1.45508912E-04  2.06207294E+00
 -3.03129079E-01 -1.45508912E-04  2.06207294E+00 -3.03129079E-01 -1.45508912E-04
  2.06207294E+00 -3.03129079E-01 -1.45508912E-04  2.06207294E+00 -3.03129079E-01
 -1.45508912E-04  2.06207294E+00 -3.03129079E-01 -1.45508912E-04  2.06207294E+00
 -3.03129079E-01 -1.45508912E-04  2.06207294E+00 -3.03129079E-01 -1.45508912E-04
  2.06207294E+00 -3.03129079E-01 -1.45508912E-04  2.06207294E+00 -3.03129079E-01
 -1.45508912E-04 -2.28436142E+00 -4.64262247E-01  3.21253443E-05 -2.28436142E+00
 -4.64262247E-01  3.21253443E-05 -2.28436142E+00 -4.64262247E-01  3.21253443E-05
 -2.28436142E+00 -4.64262247E-01  3.21253443E-05 -2.28436142E+00 -4.64262247E-01
  3.21253443E-05 -2.28436142E+00 -4.64262247E-01  3.21253443E-05 -2.28436142E+00
 -4.64262247E-01  3.21253443E-05 -2.28436142E+00 -4.64262247E-01  3.21253443E-05
 -2.28436142E+00 -4.64262247E-01  3.21253443E-05 -2.28436142E+00 -4.64262247E-01
  3.21253443E-05 -2.28436142E+00 -4.64262247E-01  3.21253443E-05 -2.28436142E+00
 -4.64262247E-01  3.21253443E-05 -2.28436142E+00 -4.64262247E-01  3.21253443E-05
 -2.28436142E+00 -4.64262247E-01  3.21253443E-05 -2.28436142E+00 -4.64262247E-01
  3.21253443E-05 -2.28436142E+00 -4.64262247E-01  3.21253443E-05  2.24271375E+00
 -2.21938508E+00  2.75900015E-04  2.24271375E+00 -2.21938508E+00  2.75900015E-04
  2.24271375E+00 -2.21938508E+00  2.75900015E-04  2.24271375E+00 -2.21938508E+00
  2.75900015E-04  3.64747379E+00  7.81900644E-01  5.65028114E-04  3.64747379E+00
  7.81900644E-01  5.65028114E-04  3.64747379E+00  7.81900644E-01  5.65028114E-04
  3.64747379E+00  7.81900644E-01  5.65028114E-04 -2.23518697E-01  2.85150225E+00
  1.88972613E-05 -2.23518697E-01  2.85150225E+00  1.88972613E-05 -2.23518697E-01
  2.85150225E+00  1.88972613E-05 -2.23518697E-01  2.85150225E+00  1.88972613E-05
Constraint Structure                       R   N=          18
 -3.04381968E-01  7.36998861E-01 -1.70075352E-05  2.06207294E+00 -3.03129079E-01
 -1.45508912E-04 -2.28436142E+00 -4.64262247E-01  3.21253443E-05  2.24271375E+00
 -2.21938508E+00  2.75900015E-04  3.64747379E+00  7.81900644E-01  5.65028114E-04
 -2.23518697E-01  2.85150225E+00  1.88972613E-05
Num ILSW                                   I              100
ILSW                                       I   N=         100
           0           1           0           0           2           0
           0           0           0           0         402          -1
           0           0           0           0           0           0
           0           0           1           0           1           0
           1           1           0           0           0           0
           0           0      100000           0          -1           0
           0           0           0           0           0           0
           0           0           0           1           0           0
           0           0           1           0           0           0
           0           0           4          40           0           0
           0           0           5           0           0           0
           0           0           0           0           0           0
           0           0           0           0           0           0
           0           0           0           0           0           0
           0           0           0           0           0           0
           0           0           0           0           0           0
           0           0           0           0
Num RLSW                                   I               40
RLSW                                       R   N=          40
  8.00000000E-01  7.20000000E-01  1.00000000E+00  8.10000000E-01  2.00000000E-01
  0.00000000E+00  0.00000000E+00  1.00000000E+00  0.00000000E+00  0.00000000E+00
  0.00000000E+00  0.00000000E+00  1.00000000E+00  0.00000000E+00  0.00000000E+00
  0.00000000E+00  0.00000000E+00  1.00000000E+00  0.00000000E+00  0.00000000E+00
  0.00000000E+00  0.00000000E+00  1.00000000E+00  0.00000000E+00  0.00000000E+00
  0.00000000E+00  0.00000000E+00  1.00000000E+00  0.00000000E+00  0.00000000E+00
  0.00000000E+00  0.00000000E+00  0.00000000E+00  0.00000000E+00  0.00000000E+00
  0.00000000E+00  0.00000000E+00  0.00000000E+00  1.00000000E+00  1.00000000E+00
MxBond                                     I                3
NBond                                      I   N=           6
           3           3           1           1           1           1
IBond                                      I   N=          18
           2           3           6           1           4           5
           1           0           0           2           0           0
           2           0           0           1           0           0
RBond                                      R   N=          18
  1.41000000E+00  2.00000000E+00  1.00000000E+00  1.41000000E+00  1.00000000E+00
  1.00000000E+00  2.00000000E+00  0.00000000E+00  0.00000000E+00  1.00000000E+00
  0.00000000E+00  0.00000000E+00  1.00000000E+00  0.00000000E+00  0.00000000E+00
  1.00000000E+00  0.00000000E+00  0.00000000E+00
Virial Ratio                               R      2.009631215618202E+00
SCF Energy                                 R     -1.698884765806648E+02
CIS Energy                                 R     -1.696801790298935E+02
Total Energy                               R     -1.696801790298935E+02
Post-SCF wavefunction norm                 R      1.000000000000000E+00
RMS Force                                  R      5.655191115441849E-02
RMS Density                                R      8.486920887741688E-09
External E-field                           R   N=          35
  0.00000000E+00  0.00000000E+00  0.00000000E+00  0.00000000E+00  0.00000000E+00
  0.00000000E+00  0.00000000E+00  0.00000000E+00  0.00000000E+00  0.00000000E+00
  0.00000000E+00  0.00000000E+00  0.00000000E+00  0.00000000E+00  0.00000000E+00
  0.00000000E+00  0.00000000E+00  0.00000000E+00  0.00000000E+00  0.00000000E+00
  0.00000000E+00  0.00000000E+00  0.00000000E+00  0.00000000E+00  0.00000000E+00
  0.00000000E+00  0.00000000E+00  0.00000000E+00  0.00000000E+00  0.00000000E+00
  0.00000000E+00  0.00000000E+00  0.00000000E+00  0.00000000E+00  0.00000000E+00
IOpCl                                      I                0
IROHF                                      I                0
Alpha Orbital Energies                     R   N=          51
 -1.91182613E+01 -1.43682162E+01 -1.02925018E+01 -1.02667506E+00 -9.06970490E-01
 -6.25753052E-01 -5.54952421E-01 -4.77039948E-01 -4.09045540E-01 -3.98347452E-01
 -2.72058353E-01 -2.54981653E-01  2.63993733E-02  6.90343573E-02  1.05463010E-01
  1.59349678E-01  2.67573075E-01  3.37457325E-01  5.36196721E-01  5.53789132E-01
  6.47842525E-01  6.74612641E-01  6.87586720E-01  7.10650613E-01  8.33311129E-01
  8.58290561E-01  8.65095965E-01  8.81438183E-01  1.00594187E+00  1.07475016E+00
  1.21016601E+00  1.28591939E+00  1.37473833E+00  1.47463521E+00  1.51775487E+00
  1.68361654E+00  1.77488008E+00  1.84974364E+00  1.85951597E+00  2.02630659E+00
  2.08390108E+00  2.25928787E+00  2.28360448E+00  2.47604826E+00  2.62018199E+00
  2.65360227E+00  2.89534307E+00  2.99240479E+00  3.73025157E+00  3.85119813E+00
  4.17819028E+00
Alpha MO coefficients                      R   N=        2601
  1.52290685E-05  5.61491166E-04  2.62546401E-05 -4.65848143E-05 -5.21470413E-09
 -2.91610996E-03  2.18785125E-03  1.98260778E-03 -4.23170692E-08 -6.17200730E-04
 -2.60006178E-04 -1.01497897E-05 -4.11297444E-04  1.68303994E-08  1.22811988E-08
 -7.67573707E-06  4.47264430E-06 -9.35087156E-06  9.29624746E-05 -5.78961694E-09
  1.74478940E-04 -2.97214076E-04 -7.44915882E-04  1.29083567E-08 -9.27532615E-05
  2.84248698E-05 -9.41846795E-06 -9.40136798E-05 -3.11325554E-08 -4.62518783E-08
  9.92778667E-01  2.57541598E-02  1.02427590E-03  5.87146588E-04 -3.32408292E-08
  1.33319282E-02  1.30371151E-03  6.77285086E-04 -2.79097344E-08 -7.66535884E-03
 -7.92678420E-03 -8.05483663E-03  2.45207415E-04 -8.76952139E-09 -6.94467429E-09
 -1.36744139E-04 -2.60123631E-04  1.74658936E-04  8.77150613E-06 -2.22743857E-05
 -6.02002415E-04  4.15650428E-05  2.25802878E-04  2.93539026E-04 -1.63334485E-04
 -3.47878873E-08 -6.35043515E-04 -2.79524989E-04  5.74743966E-05  1.10821292E-07
  1.41448017E-04  5.06330944E-05 -7.49243988E-06 -5.25931204E-05 -2.75153841E-08
  4.65768077E-09  9.92612230E-01  3.48027816E-02  1.27045654E-04 -1.52283665E-05
  6.31219513E-07  4.60491113E-03 -5.66640687E-05  4.56078778E-06 -1.53360750E-07
 -8.44304058E-03 -8.37846109E-03 -8.43202278E-03  3.35054070E-05  2.20742707E-08
 -3.10243426E-09  4.35194500E-06  3.58326495E-05 -1.70804901E-05 -1.64017568E-06
  1.23469474E-09 -7.76716170E-05 -7.09303821E-05 -3.66160384E-06 -2.62929666E-08
 -7.12155050E-05  2.01020654E-05  1.97469124E-05  1.80461099E-06 -8.26471879E-10
 -1.01787403E-08  2.98899428E-04 -5.78345551E-04  2.97686438E-04 -5.58296552E-04
 -1.36934524E-05  4.24641243E-05  9.92810266E-01  4.80095202E-02  1.11128655E-05
 -5.63494871E-04 -8.42843772E-08 -6.79216804E-03 -1.92052265E-03 -2.22210372E-03
  6.39916485E-08 -8.46931520E-03 -9.15478524E-03 -9.77064679E-03  2.96605030E-04
 -4.77699623E-08  7.87045897E-09 -1.78421593E-04 -9.17946833E-05  3.00194938E-04
 -2.27464686E-04 -1.27472953E-08  1.49675732E-03  4.28628870E-04  8.95093931E-04
  1.14022473E-08 -6.08018373E-04 -2.27895715E-04 -3.10184595E-05  2.93583238E-04
  6.88965863E-08  4.37474991E-08 -1.33835218E-04  3.39824827E-04 -1.20864147E-06
 -1.85395162E-05  4.63575346E-09 -2.60206628E-03 -1.59816175E-03 -7.87561877E-04
  3.51943420E-08 -1.32562123E-04  1.16409199E-04  3.23990962E-04 -2.16444688E-04
  1.99900735E-08  8.43104918E-09  1.39860984E-04  3.36975369E-04 -1.97233479E-04
 -1.72487838E-04 -2.61754099E-04  2.72363706E-03 -1.29087197E-01  2.55789005E-01
 -1.09572047E-01 -1.03436299E-01  2.40989347E-06  7.48085694E-02  1.02844371E-02
  3.28404535E-02  8.94247048E-07  1.19292514E-02 -5.96786677E-03 -2.16920460E-02
  1.77704149E-02 -6.91272320E-07 -2.62074865E-07 -6.14217455E-02  1.26914564E-01
 -4.35200034E-02  7.86662268E-03  1.46420527E-05  1.19687082E-01 -2.46430861E-02
 -5.59445668E-03  7.08040421E-06  9.51226377E-03  1.78566750E-03 -6.07176782E-03
 -1.74649551E-03  3.33870086E-07 -1.55009064E-07 -1.79707520E-01  3.90760440E-01
  1.34415537E-01  7.53674808E-02 -3.26373159E-06  3.65934104E-01  5.02301896E-02
  2.15835547E-02 -1.18226172E-06  6.42741644E-03 -5.06345390E-03 -6.67670795E-03
  9.81876214E-03 -4.79024434E-07 -2.18914464E-07  2.94617923E-02 -9.22846579E-04
  2.68645207E-02  1.66211807E-03  3.15544878E-02 -1.63912192E-02 -3.34710516E-02
  6.91573808E-02  2.08538093E-01  3.45779448E-03 -3.11678965E-06  1.42288244E-02
  7.29675911E-03  1.04342897E-02 -1.31736381E-06  5.86437420E-03 -1.44959435E-03
 -3.17264693E-03 -2.11533694E-02  4.52696957E-07  4.52950798E-07 -1.89065794E-01
  3.97201289E-01 -1.09167390E-02  1.81001182E-02  5.60481692E-05  4.04402140E-01
  2.30550853E-03  7.25203142E-03  2.99489191E-05  5.44976552E-03  1.17284016E-02
 -1.70502257E-02  2.77264811E-03  7.08286368E-06  8.94653944E-07  8.40294049E-02
 -1.88659543E-01 -3.43581242E-02 -3.70926150E-02  1.07963891E-06 -1.66656069E-01
 -1.84897171E-03 -1.00588936E-02  2.15862867E-07  1.45519285E-03 -7.44816630E-04
  9.04405009E-04 -2.66600928E-03  1.27753238E-07  1.90403090E-07  1.11545233E-01
  3.22945072E-03  1.20197757E-01  4.82677246E-03  1.96502462E-02  3.24152192E-03
 -1.33564670E-01  2.90070643E-01  1.64058318E-01  1.29259142E-01 -1.74115080E-05
  2.12146193E-01  4.72861151E-02  6.54191072E-02  3.08398175E-06 -8.10810472E-03
  2.35260912E-03 -1.27911587E-02 -6.50839259E-03 -2.53978601E-06  1.79697900E-06
  4.51822293E-02 -9.88904925E-02 -2.59021836E-01  2.25215948E-01 -5.68131444E-05
 -1.37895833E-01 -1.21293968E-01  9.97652777E-02 -3.15744089E-05  3.17946901E-03
 -1.10615655E-02  3.71014279E-03 -1.11334671E-02 -9.98066164E-06  6.97896304E-06
  6.17382051E-02 -1.42952445E-01  3.93476909E-02  4.27727710E-02 -5.00088837E-06
 -1.54735423E-01  3.17415384E-02  2.59810785E-02 -5.07223169E-06  4.64289122E-03
  2.96874710E-03 -1.21000969E-03  6.02086763E-03 -8.04685574E-07 -5.77728543E-07
 -1.63061855E-01 -5.78138305E-02 -8.53770202E-02 -2.94475163E-02  1.58746099E-01
  5.96419123E-02  1.63846618E-02 -4.34777641E-02 -9.81139433E-02  2.10669845E-01
  2.83600265E-05 -1.18679750E-02 -7.49268133E-03  4.97572970E-02  6.39973393E-06
  7.42299889E-03 -2.42180827E-03  2.63777140E-03  1.57921629E-02  2.75298937E-06
 -1.45913500E-06 -5.26521407E-04 -3.60124987E-04  3.49782334E-01  2.86994881E-01
  6.84795324E-05 -4.23374341E-03  1.69985206E-01  1.49386296E-01  3.47726483E-05
  8.77139482E-03 -2.81960352E-03 -9.30903848E-04  1.26548986E-02  1.46806394E-05
  1.48863714E-05 -2.91576438E-02  6.15691612E-02 -9.13670168E-02  6.21902469E-02
  1.27383696E-05  1.07630328E-01 -4.18737850E-02  3.45414542E-02  6.01982856E-06
 -1.17707513E-02  2.98380735E-03 -7.66778323E-04  1.49090964E-03  1.26991957E-06
  5.98562214E-07 -1.34402711E-01 -5.64863009E-02  2.52780900E-01  1.25287487E-01
  8.10356385E-02  5.89225849E-02  4.81221155E-02 -1.04240278E-01  2.30638573E-01
 -2.66228473E-01 -3.12816560E-05 -1.53230761E-01  3.98199684E-02 -9.27183776E-02
 -8.13315161E-06  1.77395611E-02 -1.63879315E-02  1.85780922E-03 -9.29907279E-04
 -1.91631310E-06  8.33190389E-07 -1.44569990E-02  3.35288239E-02 -1.31830162E-01
  3.14304690E-01 -2.57412143E-05  5.60902693E-02 -7.58366840E-02  1.72735332E-01
 -1.75969025E-05  7.44136073E-03 -1.66743068E-02 -2.79744706E-04  8.31123113E-03
 -1.08684039E-06  1.17662216E-05 -5.18747149E-02  1.08402277E-01 -4.99504834E-02
 -2.20520928E-01 -1.31729806E-05  2.09877843E-01 -1.49663542E-02 -1.11488031E-01
 -8.27833247E-06  2.15597019E-04 -1.74805298E-02 -1.96663709E-03 -1.27482820E-02
 -1.36613336E-06 -4.06198658E-07 -1.88482479E-01 -1.06499036E-01  5.91493251E-02
  3.34313983E-02 -1.93264044E-01 -1.32954855E-01 -3.78444954E-02  1.03864573E-01
 -2.32287636E-01 -2.60962821E-01  1.32388737E-04  4.73283600E-02 -2.60593769E-02
 -4.95335054E-02  6.40798203E-05  2.05466698E-04 -1.52158751E-02 -5.79030787E-03
  1.27241469E-02  1.09158131E-06 -5.47447290E-06  4.81324439E-03 -1.15976054E-02
  9.46272240E-02  9.61887275E-02  1.38238783E-04 -1.38150215E-02  4.41361315E-02
  3.06543623E-02  9.27560392E-05  1.29178145E-02 -1.00277842E-02 -2.17331744E-04
  9.35480620E-03  7.13965547E-07  6.04502409E-06  8.29624630E-02 -1.66941748E-01
  4.51658336E-01  1.95449726E-01  9.84543929E-05 -3.67594118E-01  2.43245065E-01
  1.00233412E-01  5.79048573E-05  3.19812592E-02  5.73315309E-03  8.36530266E-04
  1.42184989E-02  6.43898132E-06  3.64080571E-06 -7.37515959E-02 -7.08817777E-02
  9.61323191E-02  7.73447633E-02 -1.19787671E-01 -1.32162580E-01  5.61836679E-06
 -2.16815902E-05  1.30021825E-04  6.15708166E-05  3.75428445E-01 -8.54119301E-06
  2.10334984E-05  9.18069842E-06  1.96357989E-01 -2.79659119E-06  6.33585467E-06
  7.43504331E-07 -6.20743776E-06 -2.01204887E-03 -1.43823309E-02  2.14202696E-05
 -5.01513912E-05 -1.00253158E-04 -3.35138923E-05  3.14370136E-01 -7.08256606E-05
 -6.93510355E-05 -6.88769432E-06  2.16418268E-01 -9.05854695E-06 -1.27324750E-06