Title                                                                   
Freq      RB3LYP                                                      6-31G(d)            
Number of atoms                            I               14
Info1-9                                    I   N=           9
          23          22           0           0           0         100
           6          18        -502
Charge                                     I                0
Multiplicity                               I                1
Number of electrons                        I               44
Number of alpha electrons                  I               22
Number of beta electrons                   I               22
Number of basis functions                  I              106
Number of independent functions            I              106
Number of point charges in /Mol/           I                0
Number of translation vectors              I                0
Atomic numbers                             I   N=          14
           6           6           6           6           6           6
           1           1           1           1           1           1
           1           1
Nuclear charges                            R   N=          14
  6.00000000E+00  6.00000000E+00  6.00000000E+00  6.00000000E+00  6.00000000E+00
  6.00000000E+00  1.00000000E+00  1.00000000E+00  1.00000000E+00  1.00000000E+00
  1.00000000E+00  1.00000000E+00  1.00000000E+00  1.00000000E+00
Current cartesian coordinates              R   N=          42
 -5.81300922E+00  3.16625990E-01  5.13661922E-05 -3.53024278E+00 -7.92658474E-01
 -9.10504409E-06 -1.14774971E+00  5.61163892E-01 -5.25687452E-05  1.14774971E+00
 -5.61165353E-01 -5.25687452E-05  3.53024278E+00  7.92658904E-01 -9.10504409E-06
  5.81300922E+00 -3.16625561E-01  5.13661922E-05 -1.25357427E+00  2.62023973E+00
 -6.76865542E-05  1.25357427E+00 -2.62023930E+00 -6.76865542E-05  3.41191956E+00
  2.85013036E+00 -1.85536748E-05  6.01371505E+00 -2.36236749E+00  4.75867399E-05
  7.54687268E+00  7.79785901E-01  1.00499072E-04 -7.54687268E+00 -7.79783582E-01
  1.00499072E-04 -6.01371316E+00  2.36236792E+00  4.75867399E-05 -3.41192145E+00
 -2.85012993E+00 -1.85536748E-05
Force Field                                I                0
Int Atom Types                             I   N=          14
           0           0           0           0           0           0
           0           0           0           0           0           0
           0           0
MM charges                                 R   N=          14
  0.00000000E+00  0.00000000E+00  0.00000000E+00  0.00000000E+00  0.00000000E+00
  0.00000000E+00  0.00000000E+00  0.00000000E+00  0.00000000E+00  0.00000000E+00
  0.00000000E+00  0.00000000E+00  0.00000000E+00  0.00000000E+00
Integer atomic weights                     I   N=          14
          12          12          12          12          12          12
           1           1           1           1           1           1
           1           1
Real atomic weights                        R   N=          14
  1.20000000E+01  1.20000000E+01  1.20000000E+01  1.20000000E+01  1.20000000E+01
  1.20000000E+01  1.00782504E+00  1.00782504E+00  1.00782504E+00  1.00782504E+00
  1.00782504E+00  1.00782504E+00  1.00782504E+00  1.00782504E+00
Atom fragment info                         I   N=          14
           0           0           0           0           0           0
           0           0           0           0           0           0
           0           0
Atom residue num                           I   N=          14
           0           0           0           0           0           0
           0           0           0           0           0           0
           0           0
Nuclear spins                              I   N=          14
           0           0           0           0           0           0
           1           1           1           1           1           1
           1           1
Nuclear ZEff                               R   N=          14
 -3.60000000E+00 -3.60000000E+00 -3.60000000E+00 -3.60000000E+00 -3.60000000E+00
 -3.60000000E+00 -1.00000000E+00 -1.00000000E+00 -1.00000000E+00 -1.00000000E+00
 -1.00000000E+00 -1.00000000E+00 -1.00000000E+00 -1.00000000E+00
Nuclear QMom                               R   N=          14
  0.00000000E+00  0.00000000E+00  0.00000000E+00  0.00000000E+00  0.00000000E+00
  0.00000000E+00  0.00000000E+00  0.00000000E+00  0.00000000E+00  0.00000000E+00
  0.00000000E+00  0.00000000E+00  0.00000000E+00  0.00000000E+00
Nuclear GFac                               R   N=          14
  0.00000000E+00  0.00000000E+00  0.00000000E+00  0.00000000E+00  0.00000000E+00
  0.00000000E+00  2.79284600E+00  2.79284600E+00  2.79284600E+00  2.79284600E+00
  2.79284600E+00  2.79284600E+00  2.79284600E+00  2.79284600E+00
MicOpt                                     I   N=          14
          -1          -1          -1          -1          -1          -1
          -1          -1          -1          -1          -1          -1
          -1          -1
Number of contracted shells                I               40
Number of primitive shells                 I               98
Pure/Cartesian d shells                    I                1
Pure/Cartesian f shells                    I                0
Highest angular momentum                   I                2
Largest degree of contraction              I                6
Shell types                                I   N=          40
           0          -1          -1           2           0          -1
          -1           2           0          -1          -1           2
           0          -1          -1           2           0          -1
          -1           2           0          -1          -1           2
           0           0           0           0           0           0
           0           0           0           0           0           0
           0           0           0           0
Number of primitives per shell             I   N=          40
           6           3           1           1           6           3
           1           1           6           3           1           1
           6           3           1           1           6           3
           1           1           6           3           1           1
           3           1           3           1           3           1
           3           1           3           1           3           1
           3           1           3           1
Shell to atom map                          I   N=          40
           1           1           1           1           2           2
           2           2           3           3           3           3
           4           4           4           4           5           5
           5           5           6           6           6           6
           7           7           8           8           9           9
          10          10          11          11          12          12
          13          13          14          14
Primitive exponents                        R   N=          98
  3.04752488E+03  4.57369518E+02  1.03948685E+02  2.92101553E+01  9.28666296E+00
  3.16392696E+00  7.86827235E+00  1.88128854E+00  5.44249258E-01  1.68714478E-01
  8.00000000E-01  3.04752488E+03  4.57369518E+02  1.03948685E+02  2.92101553E+01
  9.28666296E+00  3.16392696E+00  7.86827235E+00  1.88128854E+00  5.44249258E-01
  1.68714478E-01  8.00000000E-01  3.04752488E+03  4.57369518E+02  1.03948685E+02
  2.92101553E+01  9.28666296E+00  3.16392696E+00  7.86827235E+00  1.88128854E+00
  5.44249258E-01  1.68714478E-01  8.00000000E-01  3.04752488E+03  4.57369518E+02
  1.03948685E+02  2.92101553E+01  9.28666296E+00  3.16392696E+00  7.86827235E+00
  1.88128854E+00  5.44249258E-01  1.68714478E-01  8.00000000E-01  3.04752488E+03
  4.57369518E+02  1.03948685E+02  2.92101553E+01  9.28666296E+00  3.16392696E+00
  7.86827235E+00  1.88128854E+00  5.44249258E-01  1.68714478E-01  8.00000000E-01
  3.04752488E+03  4.57369518E+02  1.03948685E+02  2.92101553E+01  9.28666296E+00
  3.16392696E+00  7.86827235E+00  1.88128854E+00  5.44249258E-01  1.68714478E-01
  8.00000000E-01  1.87311370E+01  2.82539436E+00  6.40121692E-01  1.61277759E-01
  1.87311370E+01  2.82539436E+00  6.40121692E-01  1.61277759E-01  1.87311370E+01
  2.82539436E+00  6.40121692E-01  1.61277759E-01  1.87311370E+01  2.82539436E+00
  6.40121692E-01  1.61277759E-01  1.87311370E+01  2.82539436E+00  6.40121692E-01
  1.61277759E-01  1.87311370E+01  2.82539436E+00  6.40121692E-01  1.61277759E-01
  1.87311370E+01  2.82539436E+00  6.40121692E-01  1.61277759E-01  1.87311370E+01
  2.82539436E+00  6.40121692E-01  1.61277759E-01
Contraction coefficients                   R   N=          98
  1.83473713E-03  1.40373228E-02  6.88426223E-02  2.32184443E-01  4.67941348E-01
  3.62311985E-01 -1.19332420E-01 -1.60854152E-01  1.14345644E+00  1.00000000E+00
  1.00000000E+00  1.83473713E-03  1.40373228E-02  6.88426223E-02  2.32184443E-01
  4.67941348E-01  3.62311985E-01 -1.19332420E-01 -1.60854152E-01  1.14345644E+00
  1.00000000E+00  1.00000000E+00  1.83473713E-03  1.40373228E-02  6.88426223E-02
  2.32184443E-01  4.67941348E-01  3.62311985E-01 -1.19332420E-01 -1.60854152E-01
  1.14345644E+00  1.00000000E+00  1.00000000E+00  1.83473713E-03  1.40373228E-02
  6.88426223E-02  2.32184443E-01  4.67941348E-01  3.62311985E-01 -1.19332420E-01
 -1.60854152E-01  1.14345644E+00  1.00000000E+00  1.00000000E+00  1.83473713E-03
  1.40373228E-02  6.88426223E-02  2.32184443E-01  4.67941348E-01  3.62311985E-01
 -1.19332420E-01 -1.60854152E-01  1.14345644E+00  1.00000000E+00  1.00000000E+00
  1.83473713E-03  1.40373228E-02  6.88426223E-02  2.32184443E-01  4.67941348E-01
  3.62311985E-01 -1.19332420E-01 -1.60854152E-01  1.14345644E+00  1.00000000E+00
  1.00000000E+00  3.34946043E-02  2.34726953E-01  8.13757326E-01  1.00000000E+00
  3.34946043E-02  2.34726953E-01  8.13757326E-01  1.00000000E+00  3.34946043E-02
  2.34726953E-01  8.13757326E-01  1.00000000E+00  3.34946043E-02  2.34726953E-01
  8.13757326E-01  1.00000000E+00  3.34946043E-02  2.34726953E-01  8.13757326E-01
  1.00000000E+00  3.34946043E-02  2.34726953E-01  8.13757326E-01  1.00000000E+00
  3.34946043E-02  2.34726953E-01  8.13757326E-01  1.00000000E+00  3.34946043E-02
  2.34726953E-01  8.13757326E-01  1.00000000E+00
P(S=P) Contraction coefficients            R   N=          98
  0.00000000E+00  0.00000000E+00  0.00000000E+00  0.00000000E+00  0.00000000E+00
  0.00000000E+00  6.89990666E-02  3.16423961E-01  7.44308291E-01  1.00000000E+00
  0.00000000E+00  0.00000000E+00  0.00000000E+00  0.00000000E+00  0.00000000E+00
  0.00000000E+00  0.00000000E+00  6.89990666E-02  3.16423961E-01  7.44308291E-01
  1.00000000E+00  0.00000000E+00  0.00000000E+00  0.00000000E+00  0.00000000E+00
  0.00000000E+00  0.00000000E+00  0.00000000E+00  6.89990666E-02  3.16423961E-01
  7.44308291E-01  1.00000000E+00  0.00000000E+00  0.00000000E+00  0.00000000E+00
  0.00000000E+00  0.00000000E+00  0.00000000E+00  0.00000000E+00  6.89990666E-02
  3.16423961E-01  7.44308291E-01  1.00000000E+00  0.00000000E+00  0.00000000E+00
  0.00000000E+00  0.00000000E+00  0.00000000E+00  0.00000000E+00  0.00000000E+00
  6.89990666E-02  3.16423961E-01  7.44308291E-01  1.00000000E+00  0.00000000E+00
  0.00000000E+00  0.00000000E+00  0.00000000E+00  0.00000000E+00  0.00000000E+00
  0.00000000E+00  6.89990666E-02  3.16423961E-01  7.44308291E-01  1.00000000E+00
  0.00000000E+00  0.00000000E+00  0.00000000E+00  0.00000000E+00  0.00000000E+00
  0.00000000E+00  0.00000000E+00  0.00000000E+00  0.00000000E+00  0.00000000E+00
  0.00000000E+00  0.00000000E+00  0.00000000E+00  0.00000000E+00  0.00000000E+00
  0.00000000E+00  0.00000000E+00  0.00000000E+00  0.00000000E+00  0.00000000E+00
  0.00000000E+00  0.00000000E+00  0.00000000E+00  0.00000000E+00  0.00000000E+00
  0.00000000E+00  0.00000000E+00  0.00000000E+00  0.00000000E+00  0.00000000E+00
  0.00000000E+00  0.00000000E+00  0.00000000E+00
Coordinates of each shell                  R   N=         120
 -5.81300922E+00  3.16625990E-01  5.13661922E-05 -5.81300922E+00  3.16625990E-01
  5.13661922E-05 -5.81300922E+00  3.16625990E-01  5.13661922E-05 -5.81300922E+00
  3.16625990E-01  5.13661922E-05 -3.53024278E+00 -7.92658474E-01 -9.10504409E-06
 -3.53024278E+00 -7.92658474E-01 -9.10504409E-06 -3.53024278E+00 -7.92658474E-01
 -9.10504409E-06 -3.53024278E+00 -7.92658474E-01 -9.10504409E-06 -1.14774971E+00
  5.61163892E-01 -5.25687452E-05 -1.14774971E+00  5.61163892E-01 -5.25687452E-05
 -1.14774971E+00  5.61163892E-01 -5.25687452E-05 -1.14774971E+00  5.61163892E-01
 -5.25687452E-05  1.14774971E+00 -5.61165353E-01 -5.25687452E-05  1.14774971E+00
 -5.61165353E-01 -5.25687452E-05  1.14774971E+00 -5.61165353E-01 -5.25687452E-05
  1.14774971E+00 -5.61165353E-01 -5.25687452E-05  3.53024278E+00  7.92658904E-01
 -9.10504409E-06  3.53024278E+00  7.92658904E-01 -9.10504409E-06  3.53024278E+00
  7.92658904E-01 -9.10504409E-06  3.53024278E+00  7.92658904E-01 -9.10504409E-06
  5.81300922E+00 -3.16625561E-01  5.13661922E-05  5.81300922E+00 -3.16625561E-01
  5.13661922E-05  5.81300922E+00 -3.16625561E-01  5.13661922E-05  5.81300922E+00
 -3.16625561E-01  5.13661922E-05 -1.25357427E+00  2.62023973E+00 -6.76865542E-05
 -1.25357427E+00  2.62023973E+00 -6.76865542E-05  1.25357427E+00 -2.62023930E+00
 -6.76865542E-05  1.25357427E+00 -2.62023930E+00 -6.76865542E-05  3.41191956E+00
  2.85013036E+00 -1.85536748E-05  3.41191956E+00  2.85013036E+00 -1.85536748E-05
  6.01371505E+00 -2.36236749E+00  4.75867399E-05  6.01371505E+00 -2.36236749E+00
  4.75867399E-05  7.54687268E+00  7.79785901E-01  1.00499072E-04  7.54687268E+00
  7.79785901E-01  1.00499072E-04 -7.54687268E+00 -7.79783582E-01  1.00499072E-04
 -7.54687268E+00 -7.79783582E-01  1.00499072E-04 -6.01371316E+00  2.36236792E+00
  4.75867399E-05 -6.01371316E+00  2.36236792E+00  4.75867399E-05 -3.41192145E+00
 -2.85012993E+00 -1.85536748E-05 -3.41192145E+00 -2.85012993E+00 -1.85536748E-05
Density Number of contracted shells        I              128
Density Number of primitive shells         I              128
Density Pure/Cartesian d shells            I                0
Density Pure/Cartesian f shells            I                0
Density Highest angular momentum           I                3
Density Largest degree of contraction      I                1
Density Shell types                        I   N=         128
           0           0           0           0          -1          -2
          -1          -2          -1          -2          -1          -2
          -3          -1          -2          -3           0           0
           0           0          -1          -2          -1          -2
          -1          -2          -1          -2          -3          -1
          -2          -3           0           0           0           0
          -1          -2          -1          -2          -1          -2
          -1          -2          -3          -1          -2          -3
           0           0           0           0          -1          -2
          -1          -2          -1          -2          -1          -2
          -3          -1          -2          -3           0           0
           0           0          -1          -2          -1          -2
          -1          -2          -1          -2          -3          -1
          -2          -3           0           0           0           0
          -1          -2          -1          -2          -1          -2
          -1          -2          -3          -1          -2          -3
           0           0           0           0           0           0
           0           0           0           0           0           0
           0           0           0           0           0           0
           0           0           0           0           0           0
           0           0           0           0           0           0
           0           0
Density Number of primitives per shell     I   N=         128
           1           1           1           1           1           1
           1           1           1           1           1           1
           1           1           1           1           1           1
           1           1           1           1           1           1
           1           1           1           1           1           1
           1           1           1           1           1           1
           1           1           1           1           1           1
           1           1           1           1           1           1
           1           1           1           1           1           1
           1           1           1           1           1           1
           1           1           1           1           1           1
           1           1           1           1           1           1
           1           1           1           1           1           1
           1           1           1           1           1           1
           1           1           1           1           1           1
           1           1           1           1           1           1
           1           1           1           1           1           1
           1           1           1           1           1           1
           1           1           1           1           1           1
           1           1           1           1           1           1
           1           1           1           1           1           1
           1           1
Density Shell to atom map                  I   N=         128
           1           1           1           1           1           1
           1           1           1           1           1           1
           1           1           1           1           2           2
           2           2           2           2           2           2
           2           2           2           2           2           2
           2           2           3           3           3           3
           3           3           3           3           3           3
           3           3           3           3           3           3
           4           4           4           4           4           4
           4           4           4           4           4           4
           4           4           4           4           5           5
           5           5           5           5           5           5
           5           5           5           5           5           5
           5           5           6           6           6           6
           6           6           6           6           6           6
           6           6           6           6           6           6
           7           7           7           7           8           8
           8           8           9           9           9           9
          10          10          10          10          11          11
          11          11          12          12          12          12
          13          13          13          13          14          14
          14          14
Density Primitive exponents                R   N=         128
  6.09504976E+03  9.14739036E+02  2.07897370E+02  5.84203106E+01  1.70961976E+01
  1.70961976E+01  6.32785392E+00  6.32785392E+00  3.76257708E+00  3.76257708E+00
  1.31969604E+00  1.31969604E+00  1.31969604E+00  3.37428956E-01  3.37428956E-01
  3.37428956E-01  6.09504976E+03  9.14739036E+02  2.07897370E+02  5.84203106E+01
  1.70961976E+01  1.70961976E+01  6.32785392E+00  6.32785392E+00  3.76257708E+00
  3.76257708E+00  1.31969604E+00  1.31969604E+00  1.31969604E+00  3.37428956E-01
  3.37428956E-01  3.37428956E-01  6.09504976E+03  9.14739036E+02  2.07897370E+02
  5.84203106E+01  1.70961976E+01  1.70961976E+01  6.32785392E+00  6.32785392E+00
  3.76257708E+00  3.76257708E+00  1.31969604E+00  1.31969604E+00  1.31969604E+00
  3.37428956E-01  3.37428956E-01  3.37428956E-01  6.09504976E+03  9.14739036E+02
  2.07897370E+02  5.84203106E+01  1.70961976E+01  1.70961976E+01  6.32785392E+00
  6.32785392E+00  3.76257708E+00  3.76257708E+00  1.31969604E+00  1.31969604E+00
  1.31969604E+00  3.37428956E-01  3.37428956E-01  3.37428956E-01  6.09504976E+03
  9.14739036E+02  2.07897370E+02  5.84203106E+01  1.70961976E+01  1.70961976E+01
  6.32785392E+00  6.32785392E+00  3.76257708E+00  3.76257708E+00  1.31969604E+00
  1.31969604E+00  1.31969604E+00  3.37428956E-01  3.37428956E-01  3.37428956E-01
  6.09504976E+03  9.14739036E+02  2.07897370E+02  5.84203106E+01  1.70961976E+01
  1.70961976E+01  6.32785392E+00  6.32785392E+00  3.76257708E+00  3.76257708E+00
  1.31969604E+00  1.31969604E+00  1.31969604E+00  3.37428956E-01  3.37428956E-01
  3.37428956E-01  3.74622739E+01  5.65078873E+00  1.28024338E+00  3.22555518E-01
  3.74622739E+01  5.65078873E+00  1.28024338E+00  3.22555518E-01  3.74622739E+01
  5.65078873E+00  1.28024338E+00  3.22555518E-01  3.74622739E+01  5.65078873E+00
  1.28024338E+00  3.22555518E-01  3.74622739E+01  5.65078873E+00  1.28024338E+00
  3.22555518E-01  3.74622739E+01  5.65078873E+00  1.28024338E+00  3.22555518E-01
  3.74622739E+01  5.65078873E+00  1.28024338E+00  3.22555518E-01  3.74622739E+01
  5.65078873E+00  1.28024338E+00  3.22555518E-01
Density Contraction coefficients           R   N=         128
  1.00000000E+00  1.00000000E+00  1.00000000E+00  1.00000000E+00  1.00000000E+00
  1.00000000E+00  1.00000000E+00  1.00000000E+00  1.00000000E+00  1.00000000E+00
  1.00000000E+00  1.00000000E+00  1.00000000E+00  1.00000000E+00  1.00000000E+00
  1.00000000E+00  1.00000000E+00  1.00000000E+00  1.00000000E+00  1.00000000E+00
  1.00000000E+00  1.00000000E+00  1.00000000E+00  1.00000000E+00  1.00000000E+00
  1.00000000E+00  1.00000000E+00  1.00000000E+00  1.00000000E+00  1.00000000E+00
  1.00000000E+00  1.00000000E+00  1.00000000E+00  1.00000000E+00  1.00000000E+00
  1.00000000E+00  1.00000000E+00  1.00000000E+00  1.00000000E+00  1.00000000E+00
  1.00000000E+00  1.00000000E+00  1.00000000E+00  1.00000000E+00  1.00000000E+00
  1.00000000E+00  1.00000000E+00  1.00000000E+00  1.00000000E+00  1.00000000E+00
  1.00000000E+00  1.00000000E+00  1.00000000E+00  1.00000000E+00  1.00000000E+00
  1.00000000E+00  1.00000000E+00  1.00000000E+00  1.00000000E+00  1.00000000E+00
  1.00000000E+00  1.00000000E+00  1.00000000E+00  1.00000000E+00  1.00000000E+00
  1.00000000E+00  1.00000000E+00  1.00000000E+00  1.00000000E+00  1.00000000E+00
  1.00000000E+00  1.00000000E+00  1.00000000E+00  1.00000000E+00  1.00000000E+00
  1.00000000E+00  1.00000000E+00  1.00000000E+00  1.00000000E+00  1.00000000E+00
  1.00000000E+00  1.00000000E+00  1.00000000E+00  1.00000000E+00  1.00000000E+00
  1.00000000E+00  1.00000000E+00  1.00000000E+00  1.00000000E+00  1.00000000E+00
  1.00000000E+00  1.00000000E+00  1.00000000E+00  1.00000000E+00  1.00000000E+00
  1.00000000E+00  1.00000000E+00  1.00000000E+00  1.00000000E+00  1.00000000E+00
  1.00000000E+00  1.00000000E+00  1.00000000E+00  1.00000000E+00  1.00000000E+00
  1.00000000E+00  1.00000000E+00  1.00000000E+00  1.00000000E+00  1.00000000E+00
  1.00000000E+00  1.00000000E+00  1.00000000E+00  1.00000000E+00  1.00000000E+00
  1.00000000E+00  1.00000000E+00  1.00000000E+00  1.00000000E+00  1.00000000E+00
  1.00000000E+00  1.00000000E+00  1.00000000E+00  1.00000000E+00  1.00000000E+00
  1.00000000E+00  1.00000000E+00  1.00000000E+00
Density P(S=P) Contraction coefficients    R   N=         128
  0.00000000E+00  0.00000000E+00  0.00000000E+00  0.00000000E+00  1.00000000E+00
  0.00000000E+00  1.00000000E+00  0.00000000E+00  1.00000000E+00  0.00000000E+00
  1.00000000E+00  0.00000000E+00  0.00000000E+00  1.00000000E+00  0.00000000E+00
  0.00000000E+00  0.00000000E+00  0.00000000E+00  0.00000000E+00  0.00000000E+00
  1.00000000E+00  0.00000000E+00  1.00000000E+00  0.00000000E+00  1.00000000E+00
  0.00000000E+00  1.00000000E+00  0.00000000E+00  0.00000000E+00  1.00000000E+00
  0.00000000E+00  0.00000000E+00  0.00000000E+00  0.00000000E+00  0.00000000E+00
  0.00000000E+00  1.00000000E+00  0.00000000E+00  1.00000000E+00  0.00000000E+00
  1.00000000E+00  0.00000000E+00  1.00000000E+00  0.00000000E+00  0.00000000E+00
  1.00000000E+00  0.00000000E+00  0.00000000E+00  0.00000000E+00  0.00000000E+00
  0.00000000E+00  0.00000000E+00  1.00000000E+00  0.00000000E+00  1.00000000E+00
  0.00000000E+00  1.00000000E+00  0.00000000E+00  1.00000000E+00  0.00000000E+00
  0.00000000E+00  1.00000000E+00  0.00000000E+00  0.00000000E+00  0.00000000E+00
  0.00000000E+00  0.00000000E+00  0.00000000E+00  1.00000000E+00  0.00000000E+00
  1.00000000E+00  0.00000000E+00  1.00000000E+00  0.00000000E+00  1.00000000E+00
  0.00000000E+00  0.00000000E+00  1.00000000E+00  0.00000000E+00  0.00000000E+00
  0.00000000E+00  0.00000000E+00  0.00000000E+00  0.00000000E+00  1.00000000E+00
  0.00000000E+00  1.00000000E+00  0.00000000E+00  1.00000000E+00  0.00000000E+00
  1.00000000E+00  0.00000000E+00  0.00000000E+00  1.00000000E+00  0.00000000E+00
  0.00000000E+00  0.00000000E+00  0.00000000E+00  0.00000000E+00  0.00000000E+00
  0.00000000E+00  0.00000000E+00  0.00000000E+00  0.00000000E+00  0.00000000E+00
  0.00000000E+00  0.00000000E+00  0.00000000E+00  0.00000000E+00  0.00000000E+00
  0.00000000E+00  0.00000000E+00  0.00000000E+00  0.00000000E+00  0.00000000E+00
  0.00000000E+00  0.00000000E+00  0.00000000E+00  0.00000000E+00  0.00000000E+00
  0.00000000E+00  0.00000000E+00  0.00000000E+00  0.00000000E+00  0.00000000E+00
  0.00000000E+00  0.00000000E+00  0.00000000E+00
Density Coordinates of each shell          R   N=         384
 -5.81300922E+00  3.16625990E-01  5.13661922E-05 -5.81300922E+00  3.16625990E-01
  5.13661922E-05 -5.81300922E+00  3.16625990E-01  5.13661922E-05 -5.81300922E+00
  3.16625990E-01  5.13661922E-05 -5.81300922E+00  3.16625990E-01  5.13661922E-05
 -5.81300922E+00  3.16625990E-01  5.13661922E-05 -5.81300922E+00  3.16625990E-01
  5.13661922E-05 -5.81300922E+00  3.16625990E-01  5.13661922E-05 -5.81300922E+00
  3.16625990E-01  5.13661922E-05 -5.81300922E+00  3.16625990E-01  5.13661922E-05
 -5.81300922E+00  3.16625990E-01  5.13661922E-05 -5.81300922E+00  3.16625990E-01
  5.13661922E-05 -5.81300922E+00  3.16625990E-01  5.13661922E-05 -5.81300922E+00
  3.16625990E-01  5.13661922E-05 -5.81300922E+00  3.16625990E-01  5.13661922E-05
 -5.81300922E+00  3.16625990E-01  5.13661922E-05 -3.53024278E+00 -7.92658474E-01
 -9.10504409E-06 -3.53024278E+00 -7.92658474E-01 -9.10504409E-06 -3.53024278E+00
 -7.92658474E-01 -9.10504409E-06 -3.53024278E+00 -7.92658474E-01 -9.10504409E-06
 -3.53024278E+00 -7.92658474E-01 -9.10504409E-06 -3.53024278E+00 -7.92658474E-01
 -9.10504409E-06 -3.53024278E+00 -7.92658474E-01 -9.10504409E-06 -3.53024278E+00
 -7.92658474E-01 -9.10504409E-06 -3.53024278E+00 -7.92658474E-01 -9.10504409E-06
 -3.53024278E+00 -7.92658474E-01 -9.10504409E-06 -3.53024278E+00 -7.92658474E-01
 -9.10504409E-06 -3.53024278E+00 -7.92658474E-01 -9.10504409E-06 -3.53024278E+00
 -7.92658474E-01 -9.10504409E-06 -3.53024278E+00 -7.92658474E-01 -9.10504409E-06
 -3.53024278E+00 -7.92658474E-01 -9.10504409E-06 -3.53024278E+00 -7.92658474E-01
 -9.10504409E-06 -1.14774971E+00  5.61163892E-01 -5.25687452E-05 -1.14774971E+00
  5.61163892E-01 -5.25687452E-05 -1.14774971E+00  5.61163892E-01 -5.25687452E-05
 -1.14774971E+00  5.61163892E-01 -5.25687452E-05 -1.14774971E+00  5.61163892E-01
 -5.25687452E-05 -1.14774971E+00  5.61163892E-01 -5.25687452E-05 -1.14774971E+00
  5.61163892E-01 -5.25687452E-05 -1.14774971E+00  5.61163892E-01 -5.25687452E-05
 -1.14774971E+00  5.61163892E-01 -5.25687452E-05 -1.14774971E+00  5.61163892E-01
 -5.25687452E-05 -1.14774971E+00  5.61163892E-01 -5.25687452E-05 -1.14774971E+00
  5.61163892E-01 -5.25687452E-05 -1.14774971E+00  5.61163892E-01 -5.25687452E-05
 -1.14774971E+00  5.61163892E-01 -5.25687452E-05 -1.14774971E+00  5.61163892E-01
 -5.25687452E-05 -1.14774971E+00  5.61163892E-01 -5.25687452E-05  1.14774971E+00
 -5.61165353E-01 -5.25687452E-05  1.14774971E+00 -5.61165353E-01 -5.25687452E-05
  1.14774971E+00 -5.61165353E-01 -5.25687452E-05  1.14774971E+00 -5.61165353E-01
 -5.25687452E-05  1.14774971E+00 -5.61165353E-01 -5.25687452E-05  1.14774971E+00
 -5.61165353E-01 -5.25687452E-05  1.14774971E+00 -5.61165353E-01 -5.25687452E-05
  1.14774971E+00 -5.61165353E-01 -5.25687452E-05  1.14774971E+00 -5.61165353E-01
 -5.25687452E-05  1.14774971E+00 -5.61165353E-01 -5.25687452E-05  1.14774971E+00
 -5.61165353E-01 -5.25687452E-05  1.14774971E+00 -5.61165353E-01 -5.25687452E-05
  1.14774971E+00 -5.61165353E-01 -5.25687452E-05  1.14774971E+00 -5.61165353E-01
 -5.25687452E-05  1.14774971E+00 -5.61165353E-01 -5.25687452E-05  1.14774971E+00
 -5.61165353E-01 -5.25687452E-05  3.53024278E+00  7.92658904E-01 -9.10504409E-06
  3.53024278E+00  7.92658904E-01 -9.10504409E-06  3.53024278E+00  7.92658904E-01
 -9.10504409E-06  3.53024278E+00  7.92658904E-01 -9.10504409E-06  3.53024278E+00
  7.92658904E-01 -9.10504409E-06  3.53024278E+00  7.92658904E-01 -9.10504409E-06
  3.53024278E+00  7.92658904E-01 -9.10504409E-06  3.53024278E+00  7.92658904E-01
 -9.10504409E-06  3.53024278E+00  7.92658904E-01 -9.10504409E-06  3.53024278E+00
  7.92658904E-01 -9.10504409E-06  3.53024278E+00  7.92658904E-01 -9.10504409E-06
  3.53024278E+00  7.92658904E-01 -9.10504409E-06  3.53024278E+00  7.92658904E-01
 -9.10504409E-06  3.53024278E+00  7.92658904E-01 -9.10504409E-06  3.53024278E+00
  7.92658904E-01 -9.10504409E-06  3.53024278E+00  7.92658904E-01 -9.10504409E-06
  5.81300922E+00 -3.16625561E-01  5.13661922E-05  5.81300922E+00 -3.16625561E-01
  5.13661922E-05  5.81300922E+00 -3.16625561E-01  5.13661922E-05  5.81300922E+00
 -3.16625561E-01  5.13661922E-05  5.81300922E+00 -3.16625561E-01  5.13661922E-05