 Entering Gaussian System, Link 0=g09
 Input=freq.com
 Output=freq.log
 Initial command:
 /home/diegoa/progs/g09/l1.exe /home/diegoa/g09scratch/Gau-31848.inp -scrdir=/home/diegoa/g09scratch/
 Default is to use a total of   4 processors:
                                4 via shared-memory
                                1 via Linda
 Entering Link 1 = /home/diegoa/progs/g09/l1.exe PID=     31854.
  
 Copyright (c) 1988,1990,1992,1993,1995,1998,2003,2009, Gaussian, Inc.
                  All Rights Reserved.
  
 This is part of the Gaussian(R) 09 program.  It is based on
 the Gaussian(R) 03 system (copyright 2003, Gaussian, Inc.),
 the Gaussian(R) 98 system (copyright 1998, Gaussian, Inc.),
 the Gaussian(R) 94 system (copyright 1995, Gaussian, Inc.),
 the Gaussian 92(TM) system (copyright 1992, Gaussian, Inc.),
 the Gaussian 90(TM) system (copyright 1990, Gaussian, Inc.),
 the Gaussian 88(TM) system (copyright 1988, Gaussian, Inc.),
 the Gaussian 86(TM) system (copyright 1986, Carnegie Mellon
 University), and the Gaussian 82(TM) system (copyright 1983,
 Carnegie Mellon University). Gaussian is a federally registered
 trademark of Gaussian, Inc.
  
 This software contains proprietary and confidential information,
 including trade secrets, belonging to Gaussian, Inc.
  
 This software is provided under written license and may be
 used, copied, transmitted, or stored only in accord with that
 written license.
  
 The following legend is applicable only to US Government
 contracts under FAR:
  
                    RESTRICTED RIGHTS LEGEND
  
 Use, reproduction and disclosure by the US Government is
 subject to restrictions as set forth in subparagraphs (a)
 and (c) of the Commercial Computer Software - Restricted
 Rights clause in FAR 52.227-19.
  
 Gaussian, Inc.
 340 Quinnipiac St., Bldg. 40, Wallingford CT 06492
  
  
 ---------------------------------------------------------------
 Warning -- This program may not be used in any manner that
 competes with the business of Gaussian, Inc. or will provide
 assistance to any competitor of Gaussian, Inc.  The licensee
 of this program is prohibited from giving any competitor of
 Gaussian, Inc. access to this program.  By using this program,
 the user acknowledges that Gaussian, Inc. is engaged in the
 business of creating and licensing software in the field of
 computational chemistry and represents and warrants to the
 licensee that it is not a competitor of Gaussian, Inc. and that
 it will not use this program in any manner prohibited above.
 ---------------------------------------------------------------
  

 Cite this work as:
 Gaussian 09, Revision A.01,
 M. J. Frisch, G. W. Trucks, H. B. Schlegel, G. E. Scuseria, 
 M. A. Robb, J. R. Cheeseman, G. Scalmani, V. Barone, B. Mennucci, 
 G. A. Petersson, H. Nakatsuji, M. Caricato, X. Li, H. P. Hratchian, 
 A. F. Izmaylov, J. Bloino, G. Zheng, J. L. Sonnenberg, M. Hada, 
 M. Ehara, K. Toyota, R. Fukuda, J. Hasegawa, M. Ishida, T. Nakajima, 
 Y. Honda, O. Kitao, H. Nakai, T. Vreven, J. A. Montgomery, Jr., 
 J. E. Peralta, F. Ogliaro, M. Bearpark, J. J. Heyd, E. Brothers, 
 K. N. Kudin, V. N. Staroverov, R. Kobayashi, J. Normand, 
 K. Raghavachari, A. Rendell, J. C. Burant, S. S. Iyengar, J. Tomasi, 
 M. Cossi, N. Rega, J. M. Millam, M. Klene, J. E. Knox, J. B. Cross, 
 V. Bakken, C. Adamo, J. Jaramillo, R. Gomperts, R. E. Stratmann, 
 O. Yazyev, A. J. Austin, R. Cammi, C. Pomelli, J. W. Ochterski, 
 R. L. Martin, K. Morokuma, V. G. Zakrzewski, G. A. Voth, 
 P. Salvador, J. J. Dannenberg, S. Dapprich, A. D. Daniels, 
 O. Farkas, J. B. Foresman, J. V. Ortiz, J. Cioslowski, 
 and D. J. Fox, Gaussian, Inc., Wallingford CT, 2009.
 
 ******************************************
 Gaussian 09:  EM64L-G09RevA.01  8-May-2009
                31-Oct-2019 
 ******************************************
 %chk=freq.chk
 %NProcShared=4
 Will use up to    4 processors via shared memory.
 Default route:  MP2=Direct MaxDisk=1000GB DenFit
 ----------------------------------------------------------------
 # pbepbe/6-31G** opt(maxcycles=500) Freq=(savenormalmodes,raman)
 ----------------------------------------------------------------
 1/6=500,14=-1,18=20,19=15,26=3,38=1/1,3;
 2/9=110,12=2,17=6,18=5,40=1/2;
 3/5=1,6=6,7=101,11=2,16=1,25=1,30=1,71=1,74=1009,82=47/1,2,3;
 4//1;
 5/5=2,38=5/2;
 6/7=2,8=2,9=2,10=2,28=1/1;
 7/92=1/1,2,3,16;
 1/6=500,14=-1,18=20,19=15/3(2);
 2/9=110/2;
 99//99;
 2/9=110/2;
 3/5=1,6=6,7=101,11=2,16=1,25=1,30=1,71=1,74=1009,82=47/1,2,3;
 4/5=5,16=3/1;
 5/5=2,38=5/2;
 7/92=1/1,2,3,16;
 1/6=500,14=-1,18=20,19=15/3(-5);
 2/9=110/2;
 6/7=2,8=2,9=2,10=2,19=2,28=1/1;
 99/9=1/99;
 -----
 Title
 -----
 Symbolic Z-matrix:
 Charge =  0 Multiplicity = 1
 8                     5.30977   0.62322   0.00013 
 16                   -4.20844   0.29201  -0.00021 
 8                    -2.86008  -2.04906  -0.00047 
 6                     1.16436  -0.43641  -0.00006 
 6                     1.53888   0.94203  -0.0008 
 6                     2.19592  -1.43077   0.00068 
 6                     2.89332   1.31171  -0.00076 
 6                     3.54799  -1.05751   0.00073 
 6                     3.92709   0.32194   0.00002 
 6                    -0.2445   -0.89941  -0.00001 
 6                    -1.35931  -0.1072   -0.00033 
 6                    -2.71977  -0.78505  -0.00032 
 1                     0.76433   1.73026  -0.00142 
 1                     1.91928  -2.50175   0.00123 
 1                     3.17366   2.38135  -0.00134 
 1                     4.34272  -1.82405   0.00131 
 1                    -0.40995  -1.99721   0.00034 
 1                    -1.28548   0.99159  -0.00071 
 1                     5.30753   1.65949  -0.00044 
 6                    -3.563     2.00062   0.00125 
 1                    -4.44041   2.67572   0.00213 
 1                    -2.96028   2.23062  -0.89914 
 1                    -2.95983   2.22887   0.90178 
 

 GradGradGradGradGradGradGradGradGradGradGradGradGradGradGradGradGradGrad
 Berny optimization.
 Initialization pass.
                           ----------------------------
                           !    Initial Parameters    !
                           ! (Angstroms and Degrees)  !
 --------------------------                            --------------------------
 ! Name  Definition              Value          Derivative Info.                !
 --------------------------------------------------------------------------------
 ! R1    R(1,9)                  1.4151         estimate D2E/DX2                !
 ! R2    R(1,19)                 1.0363         estimate D2E/DX2                !
 ! R3    R(2,12)                 1.8374         estimate D2E/DX2                !
 ! R4    R(2,20)                 1.8265         estimate D2E/DX2                !
 ! R5    R(3,12)                 1.2718         estimate D2E/DX2                !
 ! R6    R(4,5)                  1.4284         estimate D2E/DX2                !
 ! R7    R(4,6)                  1.4328         estimate D2E/DX2                !
 ! R8    R(4,10)                 1.483          estimate D2E/DX2                !
 ! R9    R(5,7)                  1.404          estimate D2E/DX2                !
 ! R10   R(5,13)                 1.1051         estimate D2E/DX2                !
 ! R11   R(6,8)                  1.4026         estimate D2E/DX2                !
 ! R12   R(6,14)                 1.1061         estimate D2E/DX2                !
 ! R13   R(7,9)                  1.4312         estimate D2E/DX2                !
 ! R14   R(7,15)                 1.1058         estimate D2E/DX2                !
 ! R15   R(8,9)                  1.4306         estimate D2E/DX2                !
 ! R16   R(8,16)                 1.1042         estimate D2E/DX2                !
 ! R17   R(10,11)                1.3676         estimate D2E/DX2                !
 ! R18   R(10,17)                1.1102         estimate D2E/DX2                !
 ! R19   R(11,12)                1.52           estimate D2E/DX2                !
 ! R20   R(11,18)                1.1013         estimate D2E/DX2                !
 ! R21   R(20,21)                1.1071         estimate D2E/DX2                !
 ! R22   R(20,22)                1.1076         estimate D2E/DX2                !
 ! R23   R(20,23)                1.1076         estimate D2E/DX2                !
 ! A1    A(9,1,19)             102.1685         estimate D2E/DX2                !
 ! A2    A(12,2,20)            105.1916         estimate D2E/DX2                !
 ! A3    A(5,4,6)              118.7475         estimate D2E/DX2                !
 ! A4    A(5,4,10)             123.3928         estimate D2E/DX2                !
 ! A5    A(6,4,10)             117.8597         estimate D2E/DX2                !
 ! A6    A(4,5,7)              120.4671         estimate D2E/DX2                !
 ! A7    A(4,5,13)             120.3011         estimate D2E/DX2                !
 ! A8    A(7,5,13)             119.2318         estimate D2E/DX2                !
 ! A9    A(4,6,8)              120.6191         estimate D2E/DX2                !
 ! A10   A(4,6,14)             119.4644         estimate D2E/DX2                !
 ! A11   A(8,6,14)             119.9165         estimate D2E/DX2                !
 ! A12   A(5,7,9)              120.979          estimate D2E/DX2                !
 ! A13   A(5,7,15)             119.9529         estimate D2E/DX2                !
 ! A14   A(9,7,15)             119.0681         estimate D2E/DX2                !
 ! A15   A(6,8,9)              120.7999         estimate D2E/DX2                !
 ! A16   A(6,8,16)             120.6015         estimate D2E/DX2                !
 ! A17   A(9,8,16)             118.5987         estimate D2E/DX2                !
 ! A18   A(1,9,7)              123.9531         estimate D2E/DX2                !
 ! A19   A(1,9,8)              117.6594         estimate D2E/DX2                !
 ! A20   A(7,9,8)              118.3875         estimate D2E/DX2                !
 ! A21   A(4,10,11)            126.409          estimate D2E/DX2                !
 ! A22   A(4,10,17)            116.7632         estimate D2E/DX2                !
 ! A23   A(11,10,17)           116.8277         estimate D2E/DX2                !
 ! A24   A(10,11,12)           118.1164         estimate D2E/DX2                !
 ! A25   A(10,11,18)           121.5546         estimate D2E/DX2                !
 ! A26   A(12,11,18)           120.329          estimate D2E/DX2                !
 ! A27   A(2,12,3)             119.5519         estimate D2E/DX2                !
 ! A28   A(2,12,11)            117.629          estimate D2E/DX2                !
 ! A29   A(3,12,11)            122.8191         estimate D2E/DX2                !
 ! A30   A(2,20,21)            106.881          estimate D2E/DX2                !
 ! A31   A(2,20,22)            112.6987         estimate D2E/DX2                !
 ! A32   A(2,20,23)            112.6968         estimate D2E/DX2                !
 ! A33   A(21,20,22)           107.7753         estimate D2E/DX2                !
 ! A34   A(21,20,23)           107.7754         estimate D2E/DX2                !
 ! A35   A(22,20,23)           108.7713         estimate D2E/DX2                !
 ! D1    D(19,1,9,7)             0.0013         estimate D2E/DX2                !
 ! D2    D(19,1,9,8)          -179.999          estimate D2E/DX2                !
 ! D3    D(20,2,12,3)          179.9589         estimate D2E/DX2                !
 ! D4    D(20,2,12,11)          -0.0453         estimate D2E/DX2                !
 ! D5    D(12,2,20,21)        -179.9574         estimate D2E/DX2                !
 ! D6    D(12,2,20,22)          61.8297         estimate D2E/DX2                !
 ! D7    D(12,2,20,23)         -61.7455         estimate D2E/DX2                !
 ! D8    D(6,4,5,7)             -0.0019         estimate D2E/DX2                !
 ! D9    D(6,4,5,13)           179.9976         estimate D2E/DX2                !
 ! D10   D(10,4,5,7)           179.9979         estimate D2E/DX2                !
 ! D11   D(10,4,5,13)           -0.0027         estimate D2E/DX2                !
 ! D12   D(5,4,6,8)              0.0021         estimate D2E/DX2                !
 ! D13   D(5,4,6,14)          -179.9983         estimate D2E/DX2                !
 ! D14   D(10,4,6,8)          -179.9977         estimate D2E/DX2                !
 ! D15   D(10,4,6,14)            0.0019         estimate D2E/DX2                !
 ! D16   D(5,4,10,11)           -0.0162         estimate D2E/DX2                !
 ! D17   D(5,4,10,17)          179.9845         estimate D2E/DX2                !
 ! D18   D(6,4,10,11)          179.9836         estimate D2E/DX2                !
 ! D19   D(6,4,10,17)           -0.0157         estimate D2E/DX2                !
 ! D20   D(4,5,7,9)              0.0001         estimate D2E/DX2                !
 ! D21   D(4,5,7,15)           179.9999         estimate D2E/DX2                !
 ! D22   D(13,5,7,9)          -179.9994         estimate D2E/DX2                !
 ! D23   D(13,5,7,15)            0.0004         estimate D2E/DX2                !
 ! D24   D(4,6,8,9)             -0.0006         estimate D2E/DX2                !
 ! D25   D(4,6,8,16)           179.9995         estimate D2E/DX2                !
 ! D26   D(14,6,8,9)           179.9999         estimate D2E/DX2                !
 ! D27   D(14,6,8,16)            0.0            estimate D2E/DX2                !
 ! D28   D(5,7,9,1)           -179.9989         estimate D2E/DX2                !
 ! D29   D(5,7,9,8)              0.0014         estimate D2E/DX2                !
 ! D30   D(15,7,9,1)             0.0014         estimate D2E/DX2                !
 ! D31   D(15,7,9,8)          -179.9983         estimate D2E/DX2                !
 ! D32   D(6,8,9,1)            179.9991         estimate D2E/DX2                !
 ! D33   D(6,8,9,7)             -0.0012         estimate D2E/DX2                !
 ! D34   D(16,8,9,1)            -0.001          estimate D2E/DX2                !
 ! D35   D(16,8,9,7)           179.9988         estimate D2E/DX2                !
 ! D36   D(4,10,11,12)         179.9953         estimate D2E/DX2                !
 ! D37   D(4,10,11,18)           0.0022         estimate D2E/DX2                !
 ! D38   D(17,10,11,12)         -0.0054         estimate D2E/DX2                !
 ! D39   D(17,10,11,18)       -179.9985         estimate D2E/DX2                !
 ! D40   D(10,11,12,2)         179.9809         estimate D2E/DX2                !
 ! D41   D(10,11,12,3)          -0.0235         estimate D2E/DX2                !
 ! D42   D(18,11,12,2)          -0.0259         estimate D2E/DX2                !
 ! D43   D(18,11,12,3)         179.9697         estimate D2E/DX2                !
 --------------------------------------------------------------------------------
 Trust Radius=3.00D-01 FncErr=1.00D-07 GrdErr=1.00D-06
 Number of steps in this run= 138 maximum allowed number of steps= 138.
 GradGradGradGradGradGradGradGradGradGradGradGradGradGradGradGradGradGrad

                          Input orientation:                          
 ---------------------------------------------------------------------
 Center     Atomic      Atomic             Coordinates (Angstroms)
 Number     Number       Type             X           Y           Z
 ---------------------------------------------------------------------
      1          8           0        5.309770    0.623223    0.000129
      2         16           0       -4.208438    0.292011   -0.000214
      3          8           0       -2.860075   -2.049059   -0.000465
      4          6           0        1.164355   -0.436412   -0.000059
      5          6           0        1.538879    0.942027   -0.000801
      6          6           0        2.195922   -1.430772    0.000683
      7          6           0        2.893317    1.311713   -0.000760
      8          6           0        3.547987   -1.057513    0.000726
      9          6           0        3.927093    0.321938    0.000019
     10          6           0       -0.244499   -0.899413   -0.000009
     11          6           0       -1.359311   -0.107200   -0.000331
     12          6           0       -2.719766   -0.785054   -0.000321
     13          1           0        0.764329    1.730256   -0.001423
     14          1           0        1.919279   -2.501747    0.001234
     15          1           0        3.173657    2.381354   -0.001339
     16          1           0        4.342718   -1.824052    0.001307
     17          1           0       -0.409954   -1.997213    0.000335
     18          1           0       -1.285483    0.991591   -0.000705
     19          1           0        5.307526    1.659491   -0.000443
     20          6           0       -3.562996    2.000625    0.001249
     21          1           0       -4.440408    2.675723    0.002128
     22          1           0       -2.960281    2.230618   -0.899144
     23          1           0       -2.959827    2.228866    0.901775
 ---------------------------------------------------------------------
                    Distance matrix (angstroms):
                    1          2          3          4          5
     1  O    0.000000
     2  S    9.523969   0.000000
     3  O    8.595781   2.701609   0.000000
     4  C    4.278702   5.421947   4.335512   0.000000
     5  C    3.784344   5.783958   5.319529   1.428413   0.000000
     6  C    3.730274   6.632029   5.093661   1.432788   2.462089
     7  C    2.512621   7.174588   6.663055   2.458709   1.403984
     8  C    2.434903   7.872950   6.484321   2.463223   2.834551
     9  C    1.415121   8.135586   7.189386   2.864929   2.467403
    10  C    5.759195   4.139119   2.857083   1.482983   2.563462
    11  C    6.708961   2.876959   2.454202   2.545048   3.082269
    12  C    8.152097   1.837448   1.271769   3.899737   4.595527
    13  H    4.678307   5.176578   5.236366   2.203287   1.105094
    14  H    4.610951   6.734538   4.800745   2.198982   3.464720
    15  H    2.766587   7.672072   7.485618   3.460795   2.178110
    16  H    2.631415   8.809086   7.206307   3.468074   3.938618
    17  H    6.291417   4.434978   2.450670   2.216878   3.526625
    18  H    6.605532   3.005508   3.424163   2.835648   2.824797
    19  H    1.036271   9.613718   8.970120   4.643132   3.836334
    20  C    8.979043   1.826461   4.110236   5.318552   5.210543
    21  H    9.963871   2.394974   4.982070   6.410831   6.225559
    22  H    8.472671   2.474706   4.374163   4.993398   4.765493
    23  H    8.472148   2.474676   4.373172   4.992583   4.765391
                    6          7          8          9         10
     6  C    0.000000
     7  C    2.829768   0.000000
     8  C    1.402641   2.458013   0.000000
     9  C    2.463523   1.431205   1.430597   0.000000
    10  C    2.497598   3.838615   3.795780   4.346709   0.000000
    11  C    3.793616   4.483097   4.998467   5.303794   1.367628
    12  C    4.957917   5.991922   6.273672   6.738410   2.477907
    13  H    3.470095   2.169739   3.939595   3.462144   2.816540
    14  H    1.106128   3.935890   2.176810   3.464753   2.692473
    15  H    3.935515   1.105768   3.459181   2.192912   4.737850
    16  H    2.182522   3.454532   1.104165   2.185868   4.679478
    17  H    2.666729   4.675531   4.067964   4.918174   1.110198
    18  H    4.241229   4.191044   5.249882   5.255415   2.158598
    19  H    4.385408   2.439130   3.236988   1.922146   6.113344
    20  C    6.703702   6.492964   7.740690   7.675899   4.407113
    21  H    7.804113   7.459494   8.817682   8.692260   5.512464
    22  H    6.387636   5.993003   7.347049   7.203296   4.240402
    23  H    6.386444   5.992915   7.346007   7.202722   4.239381
                   11         12         13         14         15
    11  C    0.000000
    12  C    1.519975   0.000000
    13  H    2.808219   4.297174   0.000000
    14  H    4.059927   4.946491   4.386772   0.000000
    15  H    5.171141   6.690185   2.495754   5.041641   0.000000
    16  H    5.954890   7.138501   5.043608   2.516412   4.364877
    17  H    2.115048   2.608555   3.908065   2.383250   5.658102
    18  H    1.101269   2.283339   2.178843   4.740666   4.670693
    19  H    6.896950   8.391258   4.543748   5.366202   2.252662
    20  C    3.049452   2.910506   4.335764   7.094131   6.747404
    21  H    4.151846   3.864918   5.289916   8.200720   7.619754
    22  H    2.972602   3.155948   3.863804   6.856826   6.201127
    23  H    2.971978   3.155174   3.864417   6.855315   6.201491
                   16         17         18         19         20
    16  H    0.000000
    17  H    4.755826   0.000000
    18  H    6.293210   3.114402   0.000000
    19  H    3.614682   6.786830   6.626753   0.000000
    20  C    8.782281   5.091599   2.491028   8.877079   0.000000
    21  H    9.868702   6.170972   3.576291   9.800763   1.107073
    22  H    8.401485   5.018743   2.268773   8.336095   1.107642
    23  H    8.400247   5.017389   2.269085   8.335905   1.107634
                   21         22         23
    21  H    0.000000
    22  H    1.789186   0.000000
    23  H    1.789180   1.800920   0.000000
 Stoichiometry    C10H10O2S
 Framework group  C1[X(C10H10O2S)]
 Deg. of freedom    63
 Full point group                 C1      NOp   1
 Largest Abelian subgroup         C1      NOp   1
 Largest concise Abelian subgroup C1      NOp   1
                         Standard orientation:                         
 ---------------------------------------------------------------------
 Center     Atomic      Atomic             Coordinates (Angstroms)
 Number     Number       Type             X           Y           Z
 ---------------------------------------------------------------------
      1          8           0        5.309770    0.623223    0.000129
      2         16           0       -4.208438    0.292011   -0.000214
      3          8           0       -2.860075   -2.049059   -0.000465
      4          6           0        1.164355   -0.436412   -0.000059
      5          6           0        1.538879    0.942027   -0.000801
      6          6           0        2.195922   -1.430772    0.000683
      7          6           0        2.893317    1.311713   -0.000760
      8          6           0        3.547987   -1.057513    0.000726
      9          6           0        3.927093    0.321938    0.000019
     10          6           0       -0.244499   -0.899413   -0.000009
     11          6           0       -1.359311   -0.107200   -0.000331
     12          6           0       -2.719766   -0.785054   -0.000321
     13          1           0        0.764329    1.730256   -0.001423
     14          1           0        1.919279   -2.501747    0.001234
     15          1           0        3.173657    2.381354   -0.001339
     16          1           0        4.342718   -1.824052    0.001307
     17          1           0       -0.409954   -1.997213    0.000335
     18          1           0       -1.285483    0.991591   -0.000705
     19          1           0        5.307526    1.659491   -0.000443
     20          6           0       -3.562996    2.000625    0.001249
     21          1           0       -4.440408    2.675723    0.002128
     22          1           0       -2.960281    2.230618   -0.899144
     23          1           0       -2.959827    2.228866    0.901775
 ---------------------------------------------------------------------
 Rotational constants (GHZ):      1.9534705      0.2460226      0.2188132
 Standard basis: 6-31G(d,p) (6D, 7F)
 There are   249 symmetry adapted basis functions of A   symmetry.
 Integral buffers will be    131072 words long.
 Raffenetti 2 integral format.
 Two-electron integral symmetry is turned on.
   249 basis functions,   458 primitive gaussians,   249 cartesian basis functions
    51 alpha electrons       51 beta electrons
       nuclear repulsion energy       771.6192266889 Hartrees.
 NAtoms=   23 NActive=   23 NUniq=   23 SFac= 7.50D-01 NAtFMM=   80 NAOKFM=F Big=F
 Standard density basis: Auto (5D, 7F)
  1160 Density fitting functions
 There are  1160 symmetry adapted density basis functions of A   symmetry.
 One-electron integrals computed using PRISM.
 NBasis=   249 RedAO= T  NBF=   249
 NBsUse=   249 1.00D-06 NBFU=   249
 NBasis=      249 NBas6D=      249 NTT=       31125   NTT6D=    31125
 NDBShl=      198 NDBF=       1160 NDBF6D=     1341  NNucDB=        0
 IDenFi=        2 ISolve=        0 FullAP=F BlkAPC=T NucTyp=        0
 TolInv= 1.00D-05 TolIt=  1.00D-10 IR12=0.
 Petite list used in FoFDir.
 MinBra= 0 MaxBra= 3 Meth= 1.
 IRaf=       0 NMat=   1 IRICut=       1 DoRegI=T DoRafI=F ISym2E= 1 JSym2E=1.
  NDBF=  1160  NBFD=  1160
 NRank=  1157 NBFDU=  1157
 S*AI*S=  8.53198431990    
 Harris functional with IExCor= 1009 diagonalized for initial guess.
 ExpMin= 1.17D-01 ExpMax= 2.19D+04 ExpMxC= 3.30D+03 IAcc=1 IRadAn=         1 AccDes= 0.00D+00
 HarFok:  IExCor= 1009 AccDes= 0.00D+00 IRadAn=         1 IDoV= 1
 ScaDFX=  1.000000  1.000000  1.000000  1.000000
 FoFCou: FMM=F IPFlag=           0 FMFlag=      100000 FMFlg1=           0
         NFxFlg=           0 DoJE=T BraDBF=F KetDBF=T FulRan=T
         Omega=  0.000000  0.000000  1.000000  0.000000  0.000000 ICntrl=     500 IOpCl=  0
         NMat0=    1 NMatS0=    1 NMatT0=    0 NMatD0=    1 NMtDS0=    0 NMtDT0=    0
         I1Cent=           4 NGrid=           0.
 Petite list used in FoFCou.
 Initial guess orbital symmetries:
       Occupied  (A) (A) (A) (A) (A) (A) (A) (A) (A) (A) (A) (A)
                 (A) (A) (A) (A) (A) (A) (A) (A) (A) (A) (A) (A)
                 (A) (A) (A) (A) (A) (A) (A) (A) (A) (A) (A) (A)
                 (A) (A) (A) (A) (A) (A) (A) (A) (A) (A) (A) (A)
                 (A) (A) (A)
       Virtual   (A) (A) (A) (A) (A) (A) (A) (A) (A) (A) (A) (A)
                 (A) (A) (A) (A) (A) (A) (A) (A) (A) (A) (A) (A)
                 (A) (A) (A) (A) (A) (A) (A) (A) (A) (A) (A) (A)
                 (A) (A) (A) (A) (A) (A) (A) (A) (A) (A) (A) (A)
                 (A) (A) (A) (A) (A) (A) (A) (A) (A) (A) (A) (A)
                 (A) (A) (A) (A) (A) (A) (A) (A) (A) (A) (A) (A)
                 (A) (A) (A) (A) (A) (A) (A) (A) (A) (A) (A) (A)
                 (A) (A) (A) (A) (A) (A) (A) (A) (A) (A) (A) (A)
                 (A) (A) (A) (A) (A) (A) (A) (A) (A) (A) (A) (A)
                 (A) (A) (A) (A) (A) (A) (A) (A) (A) (A) (A) (A)
                 (A) (A) (A) (A) (A) (A) (A) (A) (A) (A) (A) (A)
                 (A) (A) (A) (A) (A) (A) (A) (A) (A) (A) (A) (A)
                 (A) (A) (A) (A) (A) (A) (A) (A) (A) (A) (A) (A)
                 (A) (A) (A) (A) (A) (A) (A) (A) (A) (A) (A) (A)
                 (A) (A) (A) (A) (A) (A) (A) (A) (A) (A) (A) (A)
                 (A) (A) (A) (A) (A) (A) (A) (A) (A) (A) (A) (A)
                 (A) (A) (A) (A) (A) (A)
 The electronic state of the initial guess is 1-A.
 Requested convergence on RMS density matrix=1.00D-08 within 128 cycles.
 Requested convergence on MAX density matrix=1.00D-06.
 Requested convergence on             energy=1.00D-06.
 No special actions if energy rises.
 FoFCou: FMM=F IPFlag=           0 FMFlag=      100000 FMFlg1=           0
         NFxFlg=           0 DoJE=T BraDBF=T KetDBF=F FulRan=T
         Omega=  0.000000  0.000000  1.000000  0.000000  0.000000 ICntrl=     500 IOpCl=  0
         NMat0=    1 NMatS0=    1 NMatT0=    0 NMatD0=    1 NMtDS0=    0 NMtDT0=    0
         I1Cent=           5 NGrid=           0.
 Symmetry not used in FoFCou.
 EnCoef did     1 forward-backward iterations
 Initial convergence to 1.0D-05 achieved.  Increase integral accuracy.
 SCF Done:  E(RPBE-PBE) =  -934.878637980     A.U. after   17 cycles
             Convg  =    0.9577D-08             -V/T =  2.0078

 **********************************************************************

            Population analysis using the SCF density.

 **********************************************************************

 Orbital symmetries:
       Occupied  (A) (A) (A) (A) (A) (A) (A) (A) (A) (A) (A) (A)
                 (A) (A) (A) (A) (A) (A) (A) (A) (A) (A) (A) (A)
                 (A) (A) (A) (A) (A) (A) (A) (A) (A) (A) (A) (A)
                 (A) (A) (A) (A) (A) (A) (A) (A) (A) (A) (A) (A)
                 (A) (A) (A)
       Virtual   (A) (A) (A) (A) (A) (A) (A) (A) (A) (A) (A) (A)
                 (A) (A) (A) (A) (A) (A) (A) (A) (A) (A) (A) (A)
                 (A) (A) (A) (A) (A) (A) (A) (A) (A) (A) (A) (A)
                 (A) (A) (A) (A) (A) (A) (A) (A) (A) (A) (A) (A)
                 (A) (A) (A) (A) (A) (A) (A) (A) (A) (A) (A) (A)
                 (A) (A) (A) (A) (A) (A) (A) (A) (A) (A) (A) (A)
                 (A) (A) (A) (A) (A) (A) (A) (A) (A) (A) (A) (A)
                 (A) (A) (A) (A) (A) (A) (A) (A) (A) (A) (A) (A)
                 (A) (A) (A) (A) (A) (A) (A) (A) (A) (A) (A) (A)
                 (A) (A) (A) (A) (A) (A) (A) (A) (A) (A) (A) (A)
                 (A) (A) (A) (A) (A) (A) (A) (A) (A) (A) (A) (A)
                 (A) (A) (A) (A) (A) (A) (A) (A) (A) (A) (A) (A)
                 (A) (A) (A) (A) (A) (A) (A) (A) (A) (A) (A) (A)
                 (A) (A) (A) (A) (A) (A) (A) (A) (A) (A) (A) (A)
                 (A) (A) (A) (A) (A) (A) (A) (A) (A) (A) (A) (A)
                 (A) (A) (A) (A) (A) (A) (A) (A) (A) (A) (A) (A)
                 (A) (A) (A) (A) (A) (A)
 The electronic state is 1-A.
 Alpha  occ. eigenvalues --  -88.07564 -18.83082 -18.75656 -10.00119  -9.98673
 Alpha  occ. eigenvalues --   -9.93858  -9.93092  -9.93045  -9.93002  -9.92823
 Alpha  occ. eigenvalues --   -9.92636  -9.92134  -9.91919  -7.68480  -5.70882
 Alpha  occ. eigenvalues --   -5.70377  -5.69771  -0.96598  -0.91504  -0.78416
 Alpha  occ. eigenvalues --   -0.72889  -0.71445  -0.68879  -0.66360  -0.60756
 Alpha  occ. eigenvalues --   -0.57243  -0.56881  -0.52205  -0.49032  -0.46732
 Alpha  occ. eigenvalues --   -0.45054  -0.42424  -0.41032  -0.39886  -0.38743
 Alpha  occ. eigenvalues --   -0.38737  -0.38365  -0.36445  -0.35606  -0.35105
 Alpha  occ. eigenvalues --   -0.33996  -0.33693  -0.32367  -0.31248  -0.30558
 Alpha  occ. eigenvalues --   -0.29099  -0.25242  -0.24020  -0.20850  -0.20289
 Alpha  occ. eigenvalues --   -0.19633
 Alpha virt. eigenvalues --   -0.09732  -0.05033  -0.02475   0.00398   0.00744
 Alpha virt. eigenvalues --    0.03374   0.03750   0.04507   0.06436   0.09369
 Alpha virt. eigenvalues --    0.09651   0.10622   0.11323   0.11364   0.12890
 Alpha virt. eigenvalues --    0.13541   0.15581   0.18067   0.19633   0.22864
 Alpha virt. eigenvalues --    0.23900   0.25147   0.26981   0.28379   0.30531
 Alpha virt. eigenvalues --    0.32050   0.35469   0.35782   0.35869   0.39494
 Alpha virt. eigenvalues --    0.44120   0.46026   0.46228   0.46966   0.47468
 Alpha virt. eigenvalues --    0.49720   0.50139   0.51369   0.52465   0.52888
 Alpha virt. eigenvalues --    0.53577   0.53775   0.54126   0.54581   0.56188
 Alpha virt. eigenvalues --    0.57773   0.57907   0.58561   0.60063   0.64557
 Alpha virt. eigenvalues --    0.65273   0.65748   0.66037   0.71407   0.71637
 Alpha virt. eigenvalues --    0.74015   0.74185   0.75073   0.76994   0.77040
 Alpha virt. eigenvalues --    0.77278   0.79812   0.80174   0.80180   0.80898
 Alpha virt. eigenvalues --    0.81496   0.84434   0.85442   0.87595   0.88374
 Alpha virt. eigenvalues --    0.89484   0.89669   0.90686   0.91381   0.94389
 Alpha virt. eigenvalues --    0.96326   0.97859   0.98884   1.01617   1.02275
 Alpha virt. eigenvalues --    1.06220   1.08697   1.10712   1.11349   1.12297
 Alpha virt. eigenvalues --    1.16294   1.16655   1.20611   1.22465   1.23974
 Alpha virt. eigenvalues --    1.25843   1.28334   1.30876   1.31077   1.31462
 Alpha virt. eigenvalues --    1.32278   1.34578   1.36758   1.37692   1.38791
 Alpha virt. eigenvalues --    1.40813   1.47804   1.48903   1.49814   1.57060
 Alpha virt. eigenvalues --    1.59292   1.64283   1.64935   1.67248   1.68449
 Alpha virt. eigenvalues --    1.70240   1.74611   1.76723   1.76888   1.78464
 Alpha virt. eigenvalues --    1.80621   1.81886   1.82358   1.84693   1.85717
 Alpha virt. eigenvalues --    1.86831   1.89364   1.91619   1.93985   1.95468
 Alpha virt. eigenvalues --    1.95848   1.95969   1.97303   2.00038   2.01683
 Alpha virt. eigenvalues --    2.05435   2.05825   2.09071   2.12866   2.13161
 Alpha virt. eigenvalues --    2.15832   2.18915   2.21344   2.21778   2.21921
 Alpha virt. eigenvalues --    2.24263   2.25581   2.28487   2.29812   2.34392
 Alpha virt. eigenvalues --    2.36932   2.37392   2.38177   2.38914   2.39040
 Alpha virt. eigenvalues --    2.42792   2.43839   2.47604   2.48977   2.49791
 Alpha virt. eigenvalues --    2.50615   2.52769   2.54578   2.55114   2.56878
 Alpha virt. eigenvalues --    2.60108   2.64675   2.65441   2.68407   2.70164
 Alpha virt. eigenvalues --    2.71372   2.76365   2.76595   2.79456   2.83969
 Alpha virt. eigenvalues --    2.87182   2.91411   2.96019   3.02879   3.04990
 Alpha virt. eigenvalues --    3.11481   3.17204   3.17888   3.28265   3.28796
 Alpha virt. eigenvalues --    3.31533   3.35327   3.36491   3.42115   3.66410
 Alpha virt. eigenvalues --    3.83185   3.87668   3.90431   3.99273   4.06030
 Alpha virt. eigenvalues --    4.06386   4.12404   4.20521   4.31802   4.32116
 Alpha virt. eigenvalues --    4.33214   4.46993   4.71657
          Condensed to atoms (all electrons):
              1          2          3          4          5          6
     1  O    8.104163   0.000000   0.000000   0.000019   0.003867   0.002943
     2  S    0.000000  15.618065  -0.049086   0.000087   0.000001  -0.000001
     3  O    0.000000  -0.049086   8.052570   0.001173   0.000001  -0.000028
     4  C    0.000019   0.000087   0.001173   4.776176   0.505344   0.480137
     5  C    0.003867   0.000001   0.000001   0.505344   4.970587  -0.055143
     6  C    0.002943  -0.000001  -0.000028   0.480137  -0.055143   4.979593
     7  C   -0.052472   0.000000   0.000000  -0.019022   0.462167  -0.041170
     8  C   -0.047630   0.000000   0.000000  -0.021021  -0.034501   0.487225
     9  C    0.253200   0.000000   0.000000  -0.031432  -0.012764  -0.023087
    10  C    0.000000   0.008253   0.000388   0.349291  -0.051727  -0.034784
    11  C    0.000000  -0.103989  -0.078787  -0.033105  -0.013201   0.006586
    12  C    0.000000   0.263162   0.479682   0.005899   0.000211  -0.000210
    13  H   -0.000035   0.000058   0.000002  -0.035380   0.357308   0.005492
    14  H   -0.000041   0.000000   0.000000  -0.042465   0.005170   0.365823
    15  H   -0.005728   0.000000   0.000000   0.003564  -0.028812   0.000653
    16  H   -0.001620   0.000000   0.000000   0.003867   0.000294  -0.034549
    17  H    0.000000   0.000927   0.019447  -0.032957   0.004996  -0.008441
    18  H    0.000000  -0.002750   0.002400  -0.009362   0.002318   0.000145
    19  H    0.265059   0.000000   0.000000  -0.000028   0.000748  -0.000171
    20  C    0.000000   0.214250   0.001084  -0.000018  -0.000016   0.000000
    21  H    0.000000  -0.027789  -0.000014   0.000000   0.000000   0.000000
    22  H    0.000000  -0.040391   0.000026   0.000002  -0.000010   0.000000
    23  H    0.000000  -0.040384   0.000026   0.000002  -0.000010   0.000000
              7          8          9         10         11         12
     1  O   -0.052472  -0.047630   0.253200   0.000000   0.000000   0.000000
     2  S    0.000000   0.000000   0.000000   0.008253  -0.103989   0.263162
     3  O    0.000000   0.000000   0.000000   0.000388  -0.078787   0.479682
     4  C   -0.019022  -0.021021  -0.031432   0.349291  -0.033105   0.005899
     5  C    0.462167  -0.034501  -0.012764  -0.051727  -0.013201   0.000211
     6  C   -0.041170   0.487225  -0.023087  -0.034784   0.006586  -0.000210
     7  C    5.067551  -0.050793   0.461982   0.006892   0.000109  -0.000002
     8  C   -0.050793   4.941775   0.510215   0.006405  -0.000295   0.000001
     9  C    0.461982   0.510215   4.650809   0.000510   0.000015   0.000000
    10  C    0.006892   0.006405   0.000510   5.027237   0.497657  -0.007911
    11  C    0.000109  -0.000295   0.000015   0.497657   5.278360   0.283651
    12  C   -0.000002   0.000001   0.000000  -0.007911   0.283651   4.845067
    13  H   -0.038634   0.000194   0.003556  -0.012454   0.003850   0.000044
    14  H    0.000246  -0.038717   0.004281  -0.008338   0.000245  -0.000006
    15  H    0.351471   0.004582  -0.047968  -0.000165   0.000006   0.000000
    16  H    0.005851   0.356425  -0.038177  -0.000144   0.000002   0.000000
    17  H   -0.000126   0.000275  -0.000007   0.361360  -0.061608  -0.009248
    18  H    0.000016   0.000006  -0.000007  -0.047927   0.357521  -0.037594
    19  H   -0.006458   0.005914  -0.034023  -0.000001   0.000000   0.000000
    20  C    0.000000   0.000000   0.000000   0.000162   0.000647  -0.007689
    21  H    0.000000   0.000000   0.000000   0.000001   0.000122   0.001556
    22  H    0.000000   0.000000   0.000000  -0.000062   0.000610  -0.003484
    23  H    0.000000   0.000000   0.000000  -0.000062   0.000629  -0.003492
             13         14         15         16         17         18
     1  O   -0.000035  -0.000041  -0.005728  -0.001620   0.000000   0.000000
     2  S    0.000058   0.000000   0.000000   0.000000   0.000927  -0.002750
     3  O    0.000002   0.000000   0.000000   0.000000   0.019447   0.002400
     4  C   -0.035380  -0.042465   0.003564   0.003867  -0.032957  -0.009362
     5  C    0.357308   0.005170  -0.028812   0.000294   0.004996   0.002318
     6  C    0.005492   0.365823   0.000653  -0.034549  -0.008441   0.000145
     7  C   -0.038634   0.000246   0.351471   0.005851  -0.000126   0.000016
     8  C    0.000194  -0.038717   0.004582   0.356425   0.000275   0.000006
     9  C    0.003556   0.004281  -0.047968  -0.038177  -0.000007  -0.000007
    10  C   -0.012454  -0.008338  -0.000165  -0.000144   0.361360  -0.047927
    11  C    0.003850   0.000245   0.000006   0.000002  -0.061608   0.357521
    12  C    0.000044  -0.000006   0.000000   0.000000  -0.009248  -0.037594
    13  H    0.614363  -0.000149  -0.006333   0.000013   0.000019   0.004870
    14  H   -0.000149   0.597169   0.000013  -0.006200   0.006202   0.000006
    15  H   -0.006333   0.000013   0.624905  -0.000159   0.000002   0.000007
    16  H    0.000013  -0.006200  -0.000159   0.596010  -0.000006   0.000000
    17  H    0.000019   0.006202   0.000002  -0.000006   0.577224   0.005445
    18  H    0.004870   0.000006   0.000007   0.000000   0.005445   0.626596
    19  H   -0.000017   0.000005   0.007997  -0.000275   0.000000   0.000000
    20  C   -0.000031   0.000000   0.000000   0.000000  -0.000021   0.000234
    21  H    0.000001   0.000000   0.000000   0.000000   0.000000   0.000214
    22  H    0.000012   0.000000   0.000000   0.000000  -0.000005   0.002158
    23  H    0.000012   0.000000   0.000000   0.000000  -0.000005   0.002142
             19         20         21         22         23
     1  O    0.265059   0.000000   0.000000   0.000000   0.000000
     2  S    0.000000   0.214250  -0.027789  -0.040391  -0.040384
     3  O    0.000000   0.001084  -0.000014   0.000026   0.000026
     4  C   -0.000028  -0.000018   0.000000   0.000002   0.000002
     5  C    0.000748  -0.000016   0.000000  -0.000010  -0.000010
     6  C   -0.000171   0.000000   0.000000   0.000000   0.000000
     7  C   -0.006458   0.000000   0.000000   0.000000   0.000000
     8  C    0.005914   0.000000   0.000000   0.000000   0.000000
     9  C   -0.034023   0.000000   0.000000   0.000000   0.000000
    10  C   -0.000001   0.000162   0.000001  -0.000062  -0.000062
    11  C    0.000000   0.000647   0.000122   0.000610   0.000629
    12  C    0.000000  -0.007689   0.001556  -0.003484  -0.003492
    13  H   -0.000017  -0.000031   0.000001   0.000012   0.000012
    14  H    0.000005   0.000000   0.000000   0.000000   0.000000
    15  H    0.007997   0.000000   0.000000   0.000000   0.000000
    16  H   -0.000275   0.000000   0.000000   0.000000   0.000000
    17  H    0.000000  -0.000021   0.000000  -0.000005  -0.000005
    18  H    0.000000   0.000234   0.000214   0.002158   0.002142
    19  H    0.436391   0.000000   0.000000   0.000000   0.000000
    20  C    0.000000   5.216040   0.371467   0.373133   0.373148
    21  H    0.000000   0.371467   0.534346  -0.024955  -0.024940
    22  H    0.000000   0.373133  -0.024955   0.565817  -0.038065
    23  H    0.000000   0.373148  -0.024940  -0.038065   0.565756
 Mulliken atomic charges:
              1
     1  O   -0.521724
     2  S    0.159588
     3  O   -0.428884
     4  C    0.099231
     5  C   -0.116826
     6  C   -0.131013
     7  C   -0.147606
     8  C   -0.120061
     9  C    0.302897
    10  C   -0.094583
    11  C   -0.139025
    12  C    0.190363
    13  H    0.103242
    14  H    0.116756
    15  H    0.095966
    16  H    0.118669
    17  H    0.136527
    18  H    0.093561
    19  H    0.324860
    20  C   -0.542390
    21  H    0.169993
    22  H    0.165216
    23  H    0.165243
 Sum of Mulliken atomic charges =   0.00000
 Mulliken charges with hydrogens summed into heavy atoms:
              1
     1  O   -0.196864
     2  S    0.159588
     3  O   -0.428884
     4  C    0.099231
     5  C   -0.013584
     6  C   -0.014257
     7  C   -0.051640
     8  C   -0.001392
     9  C    0.302897
    10  C    0.041944
    11  C   -0.045464
    12  C    0.190363
    20  C   -0.041939
 Sum of Mulliken charges with hydrogens summed into heavy atoms =   0.00000
 Electronic spatial extent (au):  <R**2>=           4570.2108
 Charge=              0.0000 electrons
 Dipole moment (field-independent basis, Debye):
    X=              3.7887    Y=              4.9654    Z=              0.0010  Tot=              6.2458
 Quadrupole moment (field-independent basis, Debye-Ang):
   XX=            -88.0535   YY=            -73.4161   ZZ=            -86.5148
   XY=             -6.0369   XZ=             -0.0092   YZ=             -0.0051
 Traceless Quadrupole moment (field-independent basis, Debye-Ang):
   XX=             -5.3920   YY=              9.2453   ZZ=             -3.8533
   XY=             -6.0369   XZ=             -0.0092   YZ=             -0.0051
 Octapole moment (field-independent basis, Debye-Ang**2):
  XXX=             61.3542  YYY=             22.4364  ZZZ=              0.0031  XYY=             36.6277
  XXY=             81.4620  XXZ=              0.0037  XZZ=             -2.6239  YZZ=              0.0922
  YYZ=              0.0063  XYZ=             -0.0308
 Hexadecapole moment (field-independent basis, Debye-Ang**3):
 XXXX=          -5271.7919 YYYY=           -732.2837 ZZZZ=            -96.1498 XXXY=             84.3409
 XXXZ=             -0.1896 YYYX=             -6.7355 YYYZ=             -0.0324 ZZZX=             -0.0050
 ZZZY=              0.0149 XXYY=           -799.9606 XXZZ=           -909.8649 YYZZ=           -147.8366
 XXYZ=             -0.0271 YYXZ=             -0.0363 ZZXY=             11.1494
 N-N= 7.716192266889D+02 E-N=-3.738514172209D+03  KE= 9.276314212046D+02
 Calling FoFJK, ICntrl=      2527 FMM=F ISym2X=0 I1Cent= 4 IOpClX= 0 NMat=1 NMatS=1 NMatT=0.
 ***** Axes restored to original set *****
 -------------------------------------------------------------------
 Center     Atomic                   Forces (Hartrees/Bohr)
 Number     Number              X              Y              Z
 -------------------------------------------------------------------
      1        8          -0.039117223    0.042828377   -0.000031885
      2       16           0.006606142   -0.008837212    0.000004223
      3        8           0.001001624    0.060667457    0.000005644
      4        6          -0.007869375   -0.007353612    0.000001974
      5        6           0.004931322   -0.007733769    0.000006642
      6        6           0.000377441    0.012051733   -0.000007778
      7        6           0.009766046   -0.003422034    0.000004522
      8        6           0.007051664    0.006148117   -0.000002141
      9        6           0.003174665   -0.009277133    0.000006209
     10        6           0.007830685    0.006867082   -0.000002109
     11        6          -0.013395766   -0.014048429   -0.000001973
     12        6           0.013993747   -0.037694904   -0.000006446
     13        1           0.005791354   -0.005390067    0.000003933
     14        1           0.001868730    0.007757554   -0.000003783
     15        1          -0.001965999   -0.005003194    0.000002553
     16        1          -0.004500860    0.005225441   -0.000003665
     17        1           0.000891516    0.008196741   -0.000001653
     18        1          -0.001712380   -0.007021819    0.000003997
     19        1           0.006603638   -0.043660207    0.000025223
     20        6           0.004088331    0.008394664    0.000002329
     21        1           0.001860638   -0.004175595   -0.000004817
     22        1          -0.003637023   -0.002260938    0.002220490
     23        1          -0.003638916   -0.002258252   -0.002221487
 -------------------------------------------------------------------
 Cartesian Forces:  Max     0.060667457 RMS     0.013369547

 GradGradGradGradGradGradGradGradGradGradGradGradGradGradGradGradGradGrad
 Berny optimization.
 Internal  Forces:  Max     0.060406840 RMS     0.009946951
 Search for a local minimum.
 Step number   1 out of a maximum of  138
 All quantities printed in internal units (Hartrees-Bohrs-Radians)
 Mixed Optimization -- RFO/linear search
 Second derivative matrix not updated -- first step.
     Eigenvalues ---    0.00230   0.00230   0.00415   0.00502   0.00991
     Eigenvalues ---    0.01476   0.01492   0.01522   0.01651   0.01681
     Eigenvalues ---    0.01754   0.01785   0.01804   0.01856   0.01873
     Eigenvalues ---    0.01917   0.01926   0.02517   0.09254   0.10041
     Eigenvalues ---    0.16000   0.16000   0.16000   0.16000   0.16000
     Eigenvalues ---    0.16000   0.16000   0.16000   0.16000   0.16000
     Eigenvalues ---    0.22000   0.22000   0.22000   0.22951   0.23376
     Eigenvalues ---    0.24000   0.24138   0.25000   0.25000   0.25000
     Eigenvalues ---    0.25000   0.25000   0.30369   0.32579   0.32851
     Eigenvalues ---    0.32852   0.32912   0.33013   0.33052   0.33125
     Eigenvalues ---    0.33226   0.33542   0.34230   0.38014   0.38922
     Eigenvalues ---    0.40707   0.41068   0.41840   0.43204   0.43276
     Eigenvalues ---    0.45081   0.51435   0.756851000.000001000.00000
     Eigenvalues --- 1000.000001000.000001000.000001000.000001000.00000
     Eigenvalues --- 1000.000001000.000001000.000001000.000001000.00000
     Eigenvalues --- 1000.000001000.000001000.000001000.000001000.00000
     Eigenvalues --- 1000.000001000.000001000.000001000.000001000.00000
     Eigenvalues --- 1000.000001000.000001000.000001000.000001000.00000
     Eigenvalues --- 1000.000001000.000001000.000001000.000001000.00000
     Eigenvalues --- 1000.000001000.000001000.000001000.000001000.00000
     Eigenvalues --- 1000.00000
 RFO step:  Lambda=-2.14236071D-02 EMin= 2.30000000D-03
 Linear search not attempted -- first point.
 Iteration  1 RMS(Cart)=  0.06188874 RMS(Int)=  0.00140414
 Iteration  2 RMS(Cart)=  0.00207718 RMS(Int)=  0.00003132
 Iteration  3 RMS(Cart)=  0.00000241 RMS(Int)=  0.00003127
 Iteration  4 RMS(Cart)=  0.00000000 RMS(Int)=  0.00003127
 Variable       Old X    -DE/DX   Delta X   Delta X   Delta X     New X
                                 (Linear)    (Quad)   (Total)
    R1        2.67419  -0.03195   0.00000  -0.07045  -0.07045   2.60374
    R2        1.95827  -0.04367   0.00000  -0.09930  -0.09930   1.85897
    R3        3.47227  -0.00963   0.00000  -0.03776  -0.03776   3.43452
    R4        3.45151  -0.00075   0.00000  -0.00287  -0.00287   3.44864
    R5        2.40329  -0.06041   0.00000  -0.07762  -0.07762   2.32568
    R6        2.69931  -0.01249   0.00000  -0.02849  -0.02854   2.67077
    R7        2.70758  -0.01298   0.00000  -0.03011  -0.03015   2.67743
    R8        2.80243  -0.01564   0.00000  -0.04299  -0.04299   2.75944
    R9        2.65314  -0.01030   0.00000  -0.02184  -0.02184   2.63130
   R10        2.08833  -0.00790   0.00000  -0.02241  -0.02241   2.06592
   R11        2.65061  -0.00991   0.00000  -0.02098  -0.02098   2.62963
   R12        2.09028  -0.00798   0.00000  -0.02270  -0.02270   2.06758
   R13        2.70459  -0.01934   0.00000  -0.04529  -0.04525   2.65934
   R14        2.08960  -0.00534   0.00000  -0.01517  -0.01517   2.07443
   R15        2.70344  -0.02091   0.00000  -0.04888  -0.04884   2.65460
   R16        2.08657  -0.00687   0.00000  -0.01942  -0.01942   2.06715
   R17        2.58444  -0.00841   0.00000  -0.01569  -0.01569   2.56875
   R18        2.09797  -0.00824   0.00000  -0.02373  -0.02373   2.07424
   R19        2.87234  -0.02431   0.00000  -0.07478  -0.07478   2.79755
   R20        2.08110  -0.00712   0.00000  -0.01996  -0.01996   2.06114
   R21        2.09206  -0.00402   0.00000  -0.01147  -0.01147   2.08059
   R22        2.09314  -0.00425   0.00000  -0.01216  -0.01216   2.08098
   R23        2.09313  -0.00425   0.00000  -0.01215  -0.01215   2.08097
    A1        1.78318   0.01275   0.00000   0.07025   0.07025   1.85343
    A2        1.83594   0.00647   0.00000   0.02385   0.02385   1.85979
    A3        2.07253  -0.00458   0.00000  -0.01577  -0.01586   2.05667
    A4        2.15361   0.00174   0.00000   0.00586   0.00590   2.15951
    A5        2.05704   0.00284   0.00000   0.00992   0.00996   2.06700
    A6        2.10255   0.00212   0.00000   0.00958   0.00953   2.11208
    A7        2.09965  -0.00069   0.00000  -0.00276  -0.00274   2.09691
    A8        2.08099  -0.00143   0.00000  -0.00682  -0.00680   2.07419
    A9        2.10520   0.00364   0.00000   0.01566   0.01562   2.12082
   A10        2.08505  -0.00195   0.00000  -0.00858  -0.00856   2.07649
   A11        2.09294  -0.00168   0.00000  -0.00708  -0.00706   2.08588
   A12        2.11148  -0.00339   0.00000  -0.01430  -0.01426   2.09722
   A13        2.09357   0.00103   0.00000   0.00350   0.00348   2.09705
   A14        2.07813   0.00236   0.00000   0.01080   0.01078   2.08891
   A15        2.10836  -0.00463   0.00000  -0.01963  -0.01959   2.08877
   A16        2.10489   0.00298   0.00000   0.01348   0.01346   2.11835
   A17        2.06994   0.00165   0.00000   0.00615   0.00613   2.07606
   A18        2.16339  -0.00523   0.00000  -0.01886  -0.01891   2.14448
   A19        2.05354  -0.00163   0.00000  -0.00560  -0.00565   2.04790
   A20        2.06625   0.00685   0.00000   0.02447   0.02455   2.09081
   A21        2.20625   0.00528   0.00000   0.02188   0.02188   2.22814
   A22        2.03790  -0.00229   0.00000  -0.00898  -0.00898   2.02892
   A23        2.03903  -0.00300   0.00000  -0.01290  -0.01290   2.02612
   A24        2.06152   0.00036   0.00000   0.00147   0.00147   2.06299
   A25        2.12153   0.00111   0.00000   0.00636   0.00636   2.12789
   A26        2.10014  -0.00147   0.00000  -0.00784  -0.00784   2.09230
   A27        2.08657  -0.01171   0.00000  -0.04316  -0.04316   2.04342
   A28        2.05301   0.00974   0.00000   0.03587   0.03587   2.08889
   A29        2.14360   0.00198   0.00000   0.00728   0.00728   2.15088
   A30        1.86542  -0.00310   0.00000  -0.01943  -0.01954   1.84588
   A31        1.96696  -0.00142   0.00000  -0.00662  -0.00669   1.96028
   A32        1.96693  -0.00143   0.00000  -0.00665  -0.00671   1.96022
   A33        1.88103   0.00139   0.00000   0.00544   0.00533   1.88636
   A34        1.88103   0.00139   0.00000   0.00544   0.00533   1.88636
   A35        1.89842   0.00329   0.00000   0.02198   0.02196   1.92037
    D1        0.00002   0.00000   0.00000   0.00000   0.00000   0.00002
    D2       -3.14158   0.00000   0.00000  -0.00001  -0.00001  -3.14159
    D3        3.14088   0.00000   0.00000   0.00009   0.00009   3.14097
    D4       -0.00079   0.00000   0.00000   0.00005   0.00005  -0.00074
    D5       -3.14085   0.00000   0.00000  -0.00003  -0.00003  -3.14088
    D6        1.07913   0.00108   0.00000   0.00946   0.00939   1.08852
    D7       -1.07766  -0.00108   0.00000  -0.00953  -0.00945  -1.08712
    D8       -0.00003   0.00000   0.00000   0.00001   0.00001  -0.00003
    D9        3.14155   0.00000   0.00000  -0.00001  -0.00001   3.14154
   D10        3.14156   0.00000   0.00000   0.00001   0.00001   3.14157
   D11       -0.00005   0.00000   0.00000   0.00000   0.00000  -0.00005
   D12        0.00004   0.00000   0.00000   0.00000   0.00000   0.00003
   D13       -3.14156   0.00000   0.00000   0.00000   0.00000  -3.14157
   D14       -3.14155   0.00000   0.00000  -0.00001  -0.00001  -3.14156
   D15        0.00003   0.00000   0.00000  -0.00001  -0.00001   0.00002
   D16       -0.00028   0.00000   0.00000   0.00001   0.00001  -0.00027
   D17        3.14132   0.00000   0.00000   0.00001   0.00001   3.14134
   D18        3.14131   0.00000   0.00000   0.00002   0.00002   3.14132
   D19       -0.00027   0.00000   0.00000   0.00002   0.00002  -0.00026
   D20        0.00000   0.00000   0.00000   0.00000   0.00000   0.00000
   D21        3.14159   0.00000   0.00000  -0.00001  -0.00001   3.14158
   D22       -3.14158   0.00000   0.00000   0.00001   0.00001  -3.14157
   D23        0.00001   0.00000   0.00000   0.00000   0.00000   0.00001
   D24       -0.00001   0.00000   0.00000   0.00000   0.00000  -0.00001
   D25        3.14158   0.00000   0.00000   0.00000   0.00000   3.14159
   D26        3.14159   0.00000   0.00000   0.00000   0.00000   3.14159
   D27        0.00000   0.00000   0.00000   0.00000   0.00000   0.00000
   D28       -3.14157   0.00000   0.00000  -0.00001  -0.00001  -3.14159
   D29        0.00003   0.00000   0.00000  -0.00001  -0.00001   0.00002
   D30        0.00002   0.00000   0.00000   0.00000   0.00000   0.00002
   D31       -3.14156   0.00000   0.00000   0.00000   0.00000  -3.14156
   D32        3.14158   0.00000   0.00000   0.00001   0.00001   3.14159
   D33       -0.00002   0.00000   0.00000   0.00001   0.00001  -0.00001
   D34       -0.00002   0.00000   0.00000   0.00001   0.00001  -0.00001
   D35        3.14157   0.00000   0.00000   0.00000   0.00000   3.14157
   D36        3.14151   0.00000   0.00000   0.00000   0.00000   3.14151
   D37        0.00004   0.00000   0.00000  -0.00002  -0.00002   0.00002
   D38       -0.00009   0.00000   0.00000   0.00000   0.00000  -0.00010
   D39       -3.14157   0.00000   0.00000  -0.00002  -0.00002  -3.14158
   D40        3.14126   0.00000   0.00000   0.00003   0.00003   3.14129
   D41       -0.00041   0.00000   0.00000  -0.00001  -0.00001  -0.00042
   D42       -0.00045   0.00000   0.00000   0.00005   0.00005  -0.00040
   D43        3.14106   0.00000   0.00000   0.00000   0.00000   3.14107
         Item               Value     Threshold  Converged?
 Maximum Force            0.060407     0.000450     NO 
 RMS     Force            0.009947     0.000300     NO 
 Maximum Displacement     0.235764     0.001800     NO 
 RMS     Displacement     0.061765     0.001200     NO 
 Predicted change in Energy=-1.128585D-02
 GradGradGradGradGradGradGradGradGradGradGradGradGradGradGradGradGradGrad

                          Input orientation:                          
 ---------------------------------------------------------------------
 Center     Atomic      Atomic             Coordinates (Angstroms)
 Number     Number       Type             X           Y           Z
 ---------------------------------------------------------------------
      1          8           0        5.262681    0.580032    0.000051
      2         16           0       -4.166403    0.248649   -0.000147
      3          8           0       -2.784579   -1.975040   -0.000416
      4          6           0        1.179029   -0.421100   -0.000039
      5          6           0        1.575154    0.935563   -0.000735
      6          6           0        2.196226   -1.407372    0.000638
      7          6           0        2.921778    1.289754   -0.000720
      8          6           0        3.544231   -1.062015    0.000664
      9          6           0        3.915089    0.292899   -0.000009
     10          6           0       -0.213975   -0.859082    0.000019
     11          6           0       -1.329056   -0.081674   -0.000266
     12          6           0       -2.649089   -0.751825   -0.000244
     13          1           0        0.821532    1.727533   -0.001316
     14          1           0        1.910432   -2.463504    0.001159
     15          1           0        3.213587    2.348001   -0.001275
     16          1           0        4.327688   -1.825421    0.001194
     17          1           0       -0.381801   -1.943819    0.000342
     18          1           0       -1.272655    1.007574   -0.000603
     19          1           0        5.334138    1.561158   -0.000460
     20          6           0       -3.637660    1.995315    0.001201
     21          1           0       -4.565169    2.588555    0.002006
     22          1           0       -3.063957    2.259217   -0.900953
     23          1           0       -3.063425    2.257602    0.903479
 ---------------------------------------------------------------------
                    Distance matrix (angstroms):
                    1          2          3          4          5
     1  O    0.000000
     2  S    9.434905   0.000000
     3  O    8.443150   2.618058   0.000000
     4  C    4.204578   5.387226   4.257338   0.000000
     5  C    3.704626   5.782501   5.242030   1.413311   0.000000
     6  C    3.654164   6.574607   5.013050   1.416836   2.423855
     7  C    2.446126   7.164231   6.574298   2.442170   1.392425
     8  C    2.376844   7.821234   6.394330   2.450500   2.804921
     9  C    1.377842   8.081613   7.073125   2.827688   2.426585
    10  C    5.662579   4.104724   2.802387   1.460235   2.534113
    11  C    6.624865   2.856511   2.388176   2.530948   3.077207
    12  C    8.023088   1.817468   1.230696   3.842378   4.548792
    13  H    4.586999   5.202556   5.168471   2.178171   1.093235
    14  H    4.527768   6.654600   4.720353   2.169416   3.415563
    15  H    2.706381   7.672778   7.393692   3.436182   2.163202
    16  H    2.580778   8.743646   7.113841   3.447633   3.898651
    17  H    6.183041   4.373800   2.402981   2.180565   3.481452
    18  H    6.549306   2.991612   3.343935   2.837581   2.848719
    19  H    0.983725   9.590774   8.855409   4.603724   3.810687
    20  C    9.012164   1.824942   4.060969   5.388836   5.319446
    21  H   10.030992   2.373642   4.898663   6.484893   6.358927
    22  H    8.541918   2.463579   4.337966   5.098889   4.907525
    23  H    8.541338   2.463532   4.337054   5.098058   4.907321
                    6          7          8          9         10
     6  C    0.000000
     7  C    2.793012   0.000000
     8  C    1.391541   2.432749   0.000000
     9  C    2.417728   1.407262   1.404752   0.000000
    10  C    2.471779   3.801373   3.763680   4.286750   0.000000
    11  C    3.766309   4.466587   4.970914   5.257505   1.359326
    12  C    4.889460   5.933178   6.201083   6.646795   2.437475
    13  H    3.423072   2.145387   3.898034   3.410025   2.786190
    14  H    1.094118   3.887129   2.152549   3.408285   2.662194
    15  H    3.890739   1.097742   3.426009   2.171531   4.693991
    16  H    2.172071   3.417734   1.093890   2.158129   4.643330
    17  H    2.633249   4.622730   4.023842   4.844189   1.097643
    18  H    4.226713   4.203914   5.242670   5.236740   2.145975
    19  H    4.319567   2.427579   3.175658   1.903203   6.053025
    20  C    6.753703   6.597276   7.805563   7.742237   4.457489
    21  H    7.853909   7.598767   8.893201   8.785488   5.551494
    22  H    6.475049   6.130196   7.450613   7.306517   4.319483
    23  H    6.473877   6.130004   7.449566   7.305888   4.318486
                   11         12         13         14         15
    11  C    0.000000
    12  C    1.480402   0.000000
    13  H    2.810384   4.265258   0.000000
    14  H    4.020870   4.870224   4.330185   0.000000
    15  H    5.151594   6.631733   2.471215   4.984857   0.000000
    16  H    5.919409   7.058897   4.991655   2.500054   4.319569
    17  H    2.089228   2.561531   3.863527   2.350406   5.598797
    18  H    1.090708   2.233844   2.214489   4.709611   4.682212
    19  H    6.862729   8.311546   4.515672   5.283907   2.261826
    20  C    3.105406   2.919599   4.467226   7.117753   6.860319
    21  H    4.195540   3.850910   5.455081   8.213203   7.782475
    22  H    3.049736   3.170137   4.023563   6.918269   6.342307
    23  H    3.049099   3.169391   4.023992   6.916811   6.342525
                   16         17         18         19         20
    16  H    0.000000
    17  H    4.710977   0.000000
    18  H    6.276122   3.082912   0.000000
    19  H    3.532968   6.704985   6.629945   0.000000
    20  C    8.834296   5.110518   2.562983   8.982297   0.000000
    21  H    9.928045   6.167899   3.652417   9.952478   1.101002
    22  H    8.493206   5.066735   2.363472   8.475032   1.101209
    23  H    8.491980   5.065441   2.363638   8.474738   1.101202
                   21         22         23
    21  H    0.000000
    22  H    1.782536   0.000000
    23  H    1.782532   1.804432   0.000000
 Stoichiometry    C10H10O2S
 Framework group  C1[X(C10H10O2S)]
 Deg. of freedom    63
 Full point group                 C1      NOp   1
 Largest Abelian subgroup         C1      NOp   1
 Largest concise Abelian subgroup C1      NOp   1
                         Standard orientation:                         
 ---------------------------------------------------------------------
 Center     Atomic      Atomic             Coordinates (Angstroms)
 Number     Number       Type             X           Y           Z
 ---------------------------------------------------------------------
      1          8           0        5.245219    0.610879    0.000038
      2         16           0       -4.181813    0.225513   -0.000160
      3          8           0       -2.787280   -1.990228   -0.000429
      4          6           0        1.167367   -0.413619   -0.000052
      5          6           0        1.555717    0.945290   -0.000748
      6          6           0        2.190194   -1.394050    0.000625
      7          6           0        2.900291    1.307186   -0.000733
      8          6           0        3.536199   -1.040981    0.000650
      9          6           0        3.899293    0.316035   -0.000022
     10          6           0       -0.223107   -0.859569    0.000005
     11          6           0       -1.342620   -0.088559   -0.000280
     12          6           0       -2.658795   -0.766257   -0.000257
     13          1           0        0.797573    1.732932   -0.001329
     14          1           0        1.910452   -2.451802    0.001146
     15          1           0        3.186036    2.367086   -0.001288
     16          1           0        4.324014   -1.799888    0.001181
     17          1           0       -0.384719   -1.945249    0.000329
     18          1           0       -1.292458    1.000995   -0.000617
     19          1           0        5.311057    1.592398   -0.000473
     20          6           0       -3.663079    1.975178    0.001187
     21          1           0       -4.593970    2.563097    0.001993
     22          1           0       -3.090897    2.242360   -0.900966
     23          1           0       -3.090355    2.240748    0.903465
 ---------------------------------------------------------------------
 Rotational constants (GHZ):      2.0394060      0.2484729      0.2218068
 Standard basis: 6-31G(d,p) (6D, 7F)
 There are   249 symmetry adapted basis functions of A   symmetry.
 Integral buffers will be    131072 words long.
 Raffenetti 2 integral format.
 Two-electron integral symmetry is turned on.
   249 basis functions,   458 primitive gaussians,   249 cartesian basis functions
    51 alpha electrons       51 beta electrons
       nuclear repulsion energy       780.4041816431 Hartrees.
 NAtoms=   23 NActive=   23 NUniq=   23 SFac= 7.50D-01 NAtFMM=   80 NAOKFM=F Big=F
 Standard density basis: Auto (5D, 7F)
  1160 Density fitting functions
 There are  1160 symmetry adapted density basis functions of A   symmetry.
 One-electron integrals computed using PRISM.
 NBasis=   249 RedAO= T  NBF=   249
 NBsUse=   249 1.00D-06 NBFU=   249
 NBasis=      249 NBas6D=      249 NTT=       31125   NTT6D=    31125
 NDBShl=      198 NDBF=       1160 NDBF6D=     1341  NNucDB=        0
 IDenFi=        2 ISolve=        0 FullAP=F BlkAPC=T NucTyp=        0
 TolInv= 1.00D-05 TolIt=  1.00D-10 IR12=0.
 Petite list used in FoFDir.
 MinBra= 0 MaxBra= 3 Meth= 1.
 IRaf=       0 NMat=   1 IRICut=       1 DoRegI=T DoRafI=F ISym2E= 1 JSym2E=1.
  NDBF=  1160  NBFD=  1160
 NRank=  1154 NBFDU=  1154
 S*AI*S=  8.52600055227    
 Initial guess read from the read-write file.
 B after Tr=     0.000000    0.000000    0.000000
         Rot=    1.000000    0.000000    0.000000    0.000000 Ang=   0.00 deg.
 Initial guess orbital symmetries:
       Occupied  (A) (A) (A) (A) (A) (A) (A) (A) (A) (A) (A) (A)
                 (A) (A) (A) (A) (A) (A) (A) (A) (A) (A) (A) (A)
                 (A) (A) (A) (A) (A) (A) (A) (A) (A) (A) (A) (A)
                 (A) (A) (A) (A) (A) (A) (A) (A) (A) (A) (A) (A)
                 (A) (A) (A)
       Virtual   (A) (A) (A) (A) (A) (A) (A) (A) (A) (A) (A) (A)
                 (A) (A) (A) (A) (A) (A) (A) (A) (A) (A) (A) (A)
                 (A) (A) (A) (A) (A) (A) (A) (A) (A) (A) (A) (A)
                 (A) (A) (A) (A) (A) (A) (A) (A) (A) (A) (A) (A)
                 (A) (A) (A) (A) (A) (A) (A) (A) (A) (A) (A) (A)
                 (A) (A) (A) (A) (A) (A) (A) (A) (A) (A) (A) (A)
                 (A) (A) (A) (A) (A) (A) (A) (A) (A) (A) (A) (A)
                 (A) (A) (A) (A) (A) (A) (A) (A) (A) (A) (A) (A)
                 (A) (A) (A) (A) (A) (A) (A) (A) (A) (A) (A) (A)
                 (A) (A) (A) (A) (A) (A) (A) (A) (A) (A) (A) (A)
                 (A) (A) (A) (A) (A) (A) (A) (A) (A) (A) (A) (A)
                 (A) (A) (A) (A) (A) (A) (A) (A) (A) (A) (A) (A)
                 (A) (A) (A) (A) (A) (A) (A) (A) (A) (A) (A) (A)
                 (A) (A) (A) (A) (A) (A) (A) (A) (A) (A) (A) (A)
                 (A) (A) (A) (A) (A) (A) (A) (A) (A) (A) (A) (A)
                 (A) (A) (A) (A) (A) (A) (A) (A) (A) (A) (A) (A)
                 (A) (A) (A) (A) (A) (A)
 Harris functional with IExCor= 1009 diagonalized for initial guess.
 ExpMin= 1.17D-01 ExpMax= 2.19D+04 ExpMxC= 3.30D+03 IAcc=1 IRadAn=         1 AccDes= 0.00D+00
 HarFok:  IExCor= 1009 AccDes= 0.00D+00 IRadAn=         1 IDoV= 1
 ScaDFX=  1.000000  1.000000  1.000000  1.000000
 FoFCou: FMM=F IPFlag=           0 FMFlag=      100000 FMFlg1=           0
         NFxFlg=           0 DoJE=T BraDBF=F KetDBF=T FulRan=T
         Omega=  0.000000  0.000000  1.000000  0.000000  0.000000 ICntrl=     500 IOpCl=  0
         NMat0=    1 NMatS0=    1 NMatT0=    0 NMatD0=    1 NMtDS0=    0 NMtDT0=    0
         I1Cent=           4 NGrid=           0.
 Petite list used in FoFCou.
 Requested convergence on RMS density matrix=1.00D-08 within 128 cycles.
 Requested convergence on MAX density matrix=1.00D-06.
 Requested convergence on             energy=1.00D-06.
 No special actions if energy rises.
 FoFCou: FMM=F IPFlag=           0 FMFlag=      100000 FMFlg1=           0
         NFxFlg=           0 DoJE=T BraDBF=T KetDBF=F FulRan=T
         Omega=  0.000000  0.000000  1.000000  0.000000  0.000000 ICntrl=     500 IOpCl=  0
         NMat0=    1 NMatS0=    1 NMatT0=    0 NMatD0=    1 NMtDS0=    0 NMtDT0=    0
         I1Cent=           5 NGrid=           0.
 Symmetry not used in FoFCou.
 Initial convergence to 1.0D-05 achieved.  Increase integral accuracy.
 SCF Done:  E(RPBE-PBE) =  -934.890701201     A.U. after   15 cycles
             Convg  =    0.3548D-08             -V/T =  2.0070
 Calling FoFJK, ICntrl=      2527 FMM=F ISym2X=0 I1Cent= 4 IOpClX= 0 NMat=1 NMatS=1 NMatT=0.
 ***** Axes restored to original set *****
 -------------------------------------------------------------------
 Center     Atomic                   Forces (Hartrees/Bohr)
 Number     Number              X              Y              Z
 -------------------------------------------------------------------
      1        8          -0.010334940    0.007830803   -0.000005818
      2       16           0.000022301   -0.001961082    0.000002660
      3        8          -0.003649872    0.002707966    0.000001614
      4        6          -0.004909485   -0.003829271    0.000000850
      5        6           0.000693276    0.000513207    0.000000529
      6        6           0.000406247    0.001468472   -0.000001512
      7        6           0.000591888    0.003473226   -0.000001655
      8        6           0.001928549   -0.003037002    0.000001916
      9        6           0.008642901   -0.001454652    0.000002257
     10        6           0.005067741    0.003071117   -0.000000531
     11        6          -0.004493389   -0.001686605   -0.000000097
     12        6           0.005279536   -0.002928491   -0.000006423
     13        1          -0.000290444    0.000130569    0.000000028
     14        1          -0.000144477   -0.000273779    0.000000250
     15        1          -0.000476979   -0.000564416    0.000000377
     16        1          -0.000386664    0.000522868   -0.000000285
     17        1          -0.000350620   -0.000023240    0.000000459
     18        1          -0.000291721    0.001041853    0.000002469
     19        1           0.002554077   -0.006736636    0.000003838
     20        6           0.001066784    0.003531761   -0.000001125
     21        1           0.000019234   -0.000422447   -0.000000321
     22        1          -0.000471863   -0.000687430    0.000128478
     23        1          -0.000472080   -0.000686789   -0.000127957
 -------------------------------------------------------------------
 Cartesian Forces:  Max     0.010334940 RMS     0.002694101

 GradGradGradGradGradGradGradGradGradGradGradGradGradGradGradGradGradGrad
 Berny optimization.
 Using GEDIIS/GDIIS optimizer.
 Internal  Forces:  Max     0.007381928 RMS     0.001545133
 Search for a local minimum.
 Step number   2 out of a maximum of  138
 All quantities printed in internal units (Hartrees-Bohrs-Radians)
 Mixed Optimization -- RFO/linear search
 Update second derivatives using D2CorX and points    1    2
 DE= -1.21D-02 DEPred=-1.13D-02 R= 1.07D+00
 SS=  1.41D+00  RLast= 2.32D-01 DXNew= 5.0454D-01 6.9456D-01
 Trust test= 1.07D+00 RLast= 2.32D-01 DXMaxT set to 5.05D-01
 Use linear search instead of GDIIS.
     Eigenvalues ---    0.00230   0.00230   0.00419   0.00502   0.00991
     Eigenvalues ---    0.01473   0.01492   0.01531   0.01652   0.01681
     Eigenvalues ---    0.01753   0.01785   0.01804   0.01856   0.01873
     Eigenvalues ---    0.01917   0.01926   0.02517   0.09309   0.10214
     Eigenvalues ---    0.15385   0.16000   0.16000   0.16000   0.16000
     Eigenvalues ---    0.16000   0.16000   0.16000   0.16000   0.16009
     Eigenvalues ---    0.21681   0.22000   0.22033   0.22792   0.23395
     Eigenvalues ---    0.24013   0.24128   0.24455   0.25000   0.25000
     Eigenvalues ---    0.25000   0.25393   0.30542   0.32618   0.32829
     Eigenvalues ---    0.32851   0.32911   0.33033   0.33051   0.33187
     Eigenvalues ---    0.33229   0.33677   0.34085   0.38007   0.38869
     Eigenvalues ---    0.39692   0.40864   0.42428   0.43020   0.43258
     Eigenvalues ---    0.45826   0.51737   0.764281000.000001000.00000
     Eigenvalues --- 1000.000001000.000001000.000001000.000001000.00000
     Eigenvalues --- 1000.000001000.000001000.000001000.000001000.00000
     Eigenvalues --- 1000.000001000.000001000.000001000.000001000.00000
     Eigenvalues --- 1000.000001000.000001000.000001000.000001000.00000
     Eigenvalues --- 1000.000001000.000001000.000001000.000001000.00000
     Eigenvalues --- 1000.000001000.000001000.000001000.000001000.00000
     Eigenvalues --- 1000.000001000.000001000.000001000.000001000.00000
     Eigenvalues --- 1000.00000
 RFO step:  Lambda=-7.43833985D-04 EMin= 2.29999993D-03
 Quartic linear search produced a step of  0.09112.
 Iteration  1 RMS(Cart)=  0.01496184 RMS(Int)=  0.00013675
 Iteration  2 RMS(Cart)=  0.00017823 RMS(Int)=  0.00000395
 Iteration  3 RMS(Cart)=  0.00000003 RMS(Int)=  0.00000395
 Variable       Old X    -DE/DX   Delta X   Delta X   Delta X     New X
                                 (Linear)    (Quad)   (Total)
    R1        2.60374  -0.00738  -0.00642  -0.01359  -0.02001   2.58374
    R2        1.85897  -0.00653  -0.00905  -0.00988  -0.01893   1.84004
    R3        3.43452  -0.00026  -0.00344   0.00191  -0.00153   3.43299
    R4        3.44864   0.00170  -0.00026   0.00789   0.00763   3.45627
    R5        2.32568  -0.00229  -0.00707   0.00177  -0.00530   2.32038
    R6        2.67077   0.00181  -0.00260   0.00672   0.00412   2.67489
    R7        2.67743   0.00109  -0.00275   0.00496   0.00221   2.67964
    R8        2.75944  -0.00223  -0.00392  -0.00388  -0.00780   2.75165
    R9        2.63130   0.00109  -0.00199   0.00421   0.00222   2.63352
   R10        2.06592   0.00030  -0.00204   0.00266   0.00062   2.06653
   R11        2.62963   0.00136  -0.00191   0.00474   0.00283   2.63246
   R12        2.06758   0.00030  -0.00207   0.00271   0.00064   2.06822
   R13        2.65934   0.00201  -0.00412   0.00876   0.00464   2.66398
   R14        2.07443  -0.00067  -0.00138  -0.00106  -0.00245   2.07199
   R15        2.65460   0.00165  -0.00445   0.00803   0.00358   2.65818
   R16        2.06715  -0.00064  -0.00177  -0.00064  -0.00241   2.06474
   R17        2.56875   0.00183  -0.00143   0.00495   0.00352   2.57228
   R18        2.07424   0.00008  -0.00216   0.00205  -0.00011   2.07414
   R19        2.79755  -0.00139  -0.00681   0.00077  -0.00605   2.79151
   R20        2.06114   0.00103  -0.00182   0.00483   0.00301   2.06415
   R21        2.08059  -0.00024  -0.00105   0.00006  -0.00099   2.07961
   R22        2.08098  -0.00052  -0.00111  -0.00079  -0.00190   2.07908
   R23        2.08097  -0.00051  -0.00111  -0.00079  -0.00190   2.07908
    A1        1.85343   0.00564   0.00640   0.03166   0.03807   1.89150
    A2        1.85979   0.00097   0.00217   0.00226   0.00444   1.86422
    A3        2.05667  -0.00106  -0.00145  -0.00378  -0.00523   2.05144
    A4        2.15951  -0.00018   0.00054  -0.00102  -0.00048   2.15903
    A5        2.06700   0.00123   0.00091   0.00480   0.00571   2.07271
    A6        2.11208   0.00082   0.00087   0.00298   0.00385   2.11593
    A7        2.09691  -0.00053  -0.00025  -0.00253  -0.00278   2.09414
    A8        2.07419  -0.00028  -0.00062  -0.00046  -0.00107   2.07312
    A9        2.12082   0.00124   0.00142   0.00445   0.00587   2.12669
   A10        2.07649  -0.00069  -0.00078  -0.00263  -0.00341   2.07308
   A11        2.08588  -0.00055  -0.00064  -0.00182  -0.00246   2.08341
   A12        2.09722  -0.00054  -0.00130  -0.00124  -0.00253   2.09468
   A13        2.09705  -0.00005   0.00032  -0.00122  -0.00090   2.09615
   A14        2.08891   0.00059   0.00098   0.00246   0.00344   2.09235
   A15        2.08877  -0.00083  -0.00178  -0.00235  -0.00413   2.08464
   A16        2.11835   0.00052   0.00123   0.00157   0.00279   2.12115
   A17        2.07606   0.00031   0.00056   0.00078   0.00134   2.07740
   A18        2.14448  -0.00087  -0.00172  -0.00241  -0.00413   2.14035
   A19        2.04790   0.00050  -0.00051   0.00247   0.00195   2.04985
   A20        2.09081   0.00037   0.00224  -0.00006   0.00218   2.09298
   A21        2.22814   0.00177   0.00199   0.00688   0.00887   2.23701
   A22        2.02892  -0.00053  -0.00082  -0.00121  -0.00203   2.02689
   A23        2.02612  -0.00124  -0.00118  -0.00566  -0.00684   2.01929
   A24        2.06299   0.00271   0.00013   0.01325   0.01339   2.07638
   A25        2.12789  -0.00100   0.00058  -0.00488  -0.00430   2.12359
   A26        2.09230  -0.00171  -0.00071  -0.00837  -0.00908   2.08322
   A27        2.04342  -0.00348  -0.00393  -0.01164  -0.01558   2.02784
   A28        2.08889  -0.00217   0.00327  -0.01234  -0.00907   2.07982
   A29        2.15088   0.00565   0.00066   0.02398   0.02464   2.17553
   A30        1.84588  -0.00030  -0.00178  -0.00011  -0.00191   1.84398
   A31        1.96028  -0.00067  -0.00061  -0.00394  -0.00456   1.95571
   A32        1.96022  -0.00067  -0.00061  -0.00394  -0.00456   1.95565
   A33        1.88636   0.00042   0.00049   0.00240   0.00287   1.88923
   A34        1.88636   0.00042   0.00049   0.00239   0.00286   1.88923
   A35        1.92037   0.00084   0.00200   0.00355   0.00554   1.92591
    D1        0.00002   0.00000   0.00000  -0.00001  -0.00001   0.00001
    D2       -3.14159   0.00000   0.00000  -0.00001  -0.00001   3.14158
    D3        3.14097   0.00000   0.00001   0.00087   0.00088  -3.14134
    D4       -0.00074   0.00000   0.00000   0.00140   0.00140   0.00066
    D5       -3.14088   0.00000   0.00000  -0.00013  -0.00013  -3.14101
    D6        1.08852   0.00003   0.00086  -0.00085   0.00000   1.08852
    D7       -1.08712  -0.00004  -0.00086   0.00058  -0.00027  -1.08739
    D8       -0.00003   0.00000   0.00000   0.00001   0.00001  -0.00002
    D9        3.14154   0.00000   0.00000   0.00001   0.00001   3.14155
   D10        3.14157   0.00000   0.00000   0.00002   0.00002   3.14158
   D11       -0.00005   0.00000   0.00000   0.00001   0.00001  -0.00004
   D12        0.00003   0.00000   0.00000  -0.00001  -0.00001   0.00002
   D13       -3.14157   0.00000   0.00000  -0.00001  -0.00001  -3.14158
   D14       -3.14156   0.00000   0.00000  -0.00001  -0.00001  -3.14157
   D15        0.00002   0.00000   0.00000  -0.00001  -0.00001   0.00001
   D16       -0.00027   0.00000   0.00000   0.00005   0.00005  -0.00022
   D17        3.14134   0.00000   0.00000   0.00003   0.00004   3.14137
   D18        3.14132   0.00000   0.00000   0.00005   0.00005   3.14138
   D19       -0.00026   0.00000   0.00000   0.00004   0.00004  -0.00021
   D20        0.00000   0.00000   0.00000   0.00000   0.00000   0.00000
   D21        3.14158   0.00000   0.00000  -0.00001  -0.00001   3.14158
   D22       -3.14157   0.00000   0.00000   0.00000   0.00000  -3.14157
   D23        0.00001   0.00000   0.00000   0.00000   0.00000   0.00001
   D24       -0.00001   0.00000   0.00000   0.00000   0.00000  -0.00001
   D25        3.14159   0.00000   0.00000   0.00000   0.00000   3.14159
   D26        3.14159   0.00000   0.00000   0.00000   0.00000   3.14159
   D27        0.00000   0.00000   0.00000   0.00000   0.00000   0.00000
   D28       -3.14159   0.00000   0.00000  -0.00001  -0.00001   3.14159
   D29        0.00002   0.00000   0.00000  -0.00001  -0.00001   0.00001
   D30        0.00002   0.00000   0.00000  -0.00001  -0.00001   0.00001
   D31       -3.14156   0.00000   0.00000   0.00000   0.00000  -3.14157
   D32        3.14159   0.00000   0.00000   0.00001   0.00001  -3.14158
   D33       -0.00001   0.00000   0.00000   0.00001   0.00001   0.00000
   D34       -0.00001   0.00000   0.00000   0.00001   0.00001   0.00000
   D35        3.14157   0.00000   0.00000   0.00001   0.00001   3.14158
   D36        3.14151   0.00000   0.00000   0.00002   0.00002   3.14154
   D37        0.00002   0.00000   0.00000  -0.00005  -0.00005  -0.00003
   D38       -0.00010   0.00000   0.00000   0.00004   0.00004  -0.00006
   D39       -3.14158   0.00000   0.00000  -0.00004  -0.00004   3.14156
   D40        3.14129   0.00000   0.00000  -0.00012  -0.00012   3.14118
   D41       -0.00042   0.00000   0.00000   0.00045   0.00045   0.00003
   D42       -0.00040   0.00000   0.00000  -0.00005  -0.00004  -0.00044
   D43        3.14107   0.00000   0.00000   0.00052   0.00052   3.14159
[...]
 .00473014,0.00000107,-0.00764979,0.00778927,0.00000001,-0.00082060,-0.
 00006465,0.,-0.00213801,0.00046636,0.00000082,0.00206846,0.00078485,-0
 .00000041,-0.00027043,-0.00049460,0.,-0.00047342,0.00044612,-0.0000000
 4,-0.14502319,0.20520619,0.00000015,-0.00000013,-0.00030816,0.,0.00000
 002,-0.00007075,-0.00000004,-0.00000005,0.00018110,-0.00000235,0.00000
 187,0.00249062,-0.00000319,0.00000663,-0.03300187,0.00000063,0.0000009
 0,0.00515930,0.00000194,-0.00000185,0.00284001,0.00000003,0.,-0.000742
 92,0.00000094,0.00000088,0.00795940,-0.00000009,-0.00000066,-0.0030367
 3,-0.00000003,0.00000045,0.00004623,0.00000005,-0.00000009,-0.00035730
 ,0.00000201,-0.00000766,0.02213367,-0.00022862,-0.00172993,0.00000016,
 0.00011658,-0.00004823,0.,0.00014821,-0.00012081,-0.00000001,0.0075990
 3,0.01982826,-0.00000185,-0.00309526,0.00279975,0.00000026,-0.07167924
 ,-0.06633721,0.00000785,-0.00083280,0.00015678,0.,-0.00403371,-0.02884
 562,0.00000283,-0.00472408,0.00035149,0.00000077,0.00130872,0.00261484
 ,-0.00000045,0.00010679,-0.00039025,0.,-0.00026196,0.00014222,0.000000
 04,0.00032876,0.00124783,-0.00000008,0.07482556,-0.00003771,-0.0004055
 0,0.00000005,0.00000384,0.00002065,0.,-0.00003492,0.00021064,0.,-0.007
 50342,-0.01659984,0.00000202,0.00395272,-0.00151096,0.00000020,-0.0661
 7544,-0.30663486,0.00002601,0.00053096,0.00061820,-0.00000013,0.000490
 27,-0.00359221,0.00000054,-0.00064215,0.00197807,0.00000050,-0.0026802
 2,0.00043789,-0.00000016,0.00059802,0.00042239,-0.00000006,-0.00006246
 ,-0.00031300,0.00000003,-0.00047947,-0.00099619,0.00000018,0.07124239,
 0.32501091,0.00000003,0.00000015,0.00019505,0.,0.,-0.00005372,-0.00000
 002,-0.00000001,-0.00006708,0.00000032,0.00000034,0.00283913,0.0000002
 0,0.00000033,0.00465275,0.00000793,0.00002623,-0.03386239,0.,-0.000000
 07,-0.00051033,0.00000035,0.00000225,0.00294041,0.00000083,0.00000047,
 0.00775872,-0.00000012,-0.00000051,-0.00367256,-0.00000001,-0.00000001
 ,0.00019138,0.00000006,0.,0.00021138,0.00000007,0.00000004,0.00062482,
 -0.00000922,-0.00002869,0.02366090,0.00398828,0.00137700,-0.00000053,-
 0.00015175,0.00005212,0.,-0.00017419,0.00002458,0.00000001,-0.00515183
 ,0.00032483,0.00000081,-0.00359103,-0.02979656,0.00000291,-0.00125422,
 0.00023792,0.00000004,-0.07013215,-0.06294382,0.00000829,-0.00290210,0
 .00304335,0.00000021,0.00551654,0.01982566,-0.00000183,0.00056861,-0.0
 0164710,0.00000011,-0.00022726,0.00000455,0.00000002,0.00037148,-0.000
 02940,-0.00000004,0.00100843,0.00015001,-0.00000034,0.00008542,-0.0001
 0426,-0.00000005,0.07259877,-0.00007207,0.00277510,-0.00000050,-0.0001
 1109,0.00004087,0.,-0.00013396,-0.00002799,0.00000001,-0.00115017,0.00
 232892,0.00000054,-0.00019887,-0.00462194,0.00000047,0.00082901,0.0005
 8001,-0.00000014,-0.06345014,-0.30209026,0.00002800,0.00430059,-0.0011
 7868,0.00000018,-0.01179590,-0.01777971,0.00000255,0.00031414,-0.00041
 379,0.00000005,-0.00023042,-0.00000819,0.00000003,0.00034022,0.0000089
 5,-0.00000004,-0.00004907,0.00090908,-0.00000043,-0.00008545,-0.000094
 97,-0.00000005,0.06984570,0.32126402,-0.00000049,-0.00000058,-0.002977
 82,0.00000002,0.,-0.00000379,0.00000002,0.,0.00002079,0.00000082,0.000
 00033,0.00747530,0.00000033,0.00000237,0.00062467,-0.00000003,-0.00000
 008,-0.00032478,0.00000831,0.00002813,-0.02759155,0.00000011,0.0000002
 6,0.00425241,0.00000089,0.00000032,0.00209051,0.00000005,0.00000018,0.
 00060193,0.00000002,0.,0.00005927,-0.00000005,0.00000001,-0.00009377,-
 0.00000033,-0.00000046,-0.00408959,-0.00000005,-0.00000004,-0.00078636
 ,-0.00000958,-0.00003067,0.02037606,0.00100725,0.00067878,-0.00000031,
 -0.00013907,0.00002692,0.,-0.00009343,-0.00010184,0.,-0.00318363,-0.00
 349598,0.00000093,-0.00021050,-0.00072704,0.00000003,-0.01544431,0.021
 53210,-0.00000065,-0.00010663,-0.00198121,0.00000048,-0.19332966,0.138
 89610,-0.00000053,0.00743596,-0.00698708,0.00000031,-0.00044367,0.0013
 0711,-0.00000003,-0.00053686,-0.00029598,0.00000005,0.00023999,0.00018
 546,-0.00000002,0.00000268,0.00014511,-0.00000007,0.00102877,-0.000066
 60,-0.00000034,0.00051469,-0.00051155,0.00000003,0.20320121,0.00061182
 ,0.00205828,-0.00000044,-0.00000866,-0.00000794,0.,0.00001656,0.000002
 41,0.,-0.00231100,0.00063809,0.00000067,-0.00126157,-0.00036679,0.0000
 0007,-0.00718839,0.00946961,-0.00000020,-0.00309656,-0.00447353,0.0000
 0093,0.13726843,-0.19061815,0.00000385,0.02380842,-0.01548821,-0.00000
 003,-0.00031465,0.00040960,0.00000004,-0.00011279,-0.00010570,0.,-0.00
 005612,0.00003362,0.,0.00010778,0.00006365,-0.00000008,0.00024877,0.00
 078801,-0.00000040,0.00109779,-0.00099199,0.00000003,-0.14879172,0.198
 10831,-0.00000030,-0.00000043,-0.00288207,0.00000002,0.,0.00003385,0.,
 0.00000002,-0.00000361,0.00000089,0.00000082,0.00730046,0.00000003,-0.
 00000001,-0.00046388,0.00000166,-0.00000200,0.00098168,0.00000055,0.00
 000085,0.00470031,-0.00000043,0.00000368,-0.03040912,-0.00000210,0.000
 00199,0.00352261,0.00000008,-0.00000006,0.00073594,0.00000004,0.,-0.00
 026922,-0.00000004,-0.00000003,-0.00011743,-0.00000006,-0.00000010,-0.
 00090320,-0.00000035,-0.00000038,-0.00413362,-0.00000010,0.00000013,0.
 00021553,0.00000017,-0.00000436,0.02226169,-0.00002364,0.00012378,0.,0
 .00079942,-0.00097874,0.00000005,0.00015558,-0.00326338,0.00000006,-0.
 00396490,-0.02657729,0.00000165,-0.00509911,0.00023767,0.00000048,0.00
 103817,-0.00265235,0.00000003,0.00046761,-0.00126781,0.00000012,-0.000
 02667,0.00039866,-0.00000002,0.00010346,0.00000215,-0.00000002,-0.0567
 2508,-0.03833177,0.00000212,0.00576485,0.02639504,-0.00000059,-0.00075
 075,0.00567466,-0.00000070,0.00012596,-0.00007147,-0.00000002,-0.00041
 680,0.00120064,-0.00000004,-0.00040409,-0.00012483,0.00000002,-0.00000
 386,-0.00000127,0.,0.06259582,-0.00008950,0.00005033,0.,0.00002893,-0.
 00042548,0.00000005,-0.00157015,0.00168855,0.00000006,-0.00038644,-0.0
 0696079,0.00000048,-0.00079287,0.00099394,0.,0.00224184,0.00110119,-0.
 00000023,0.00026765,-0.00030365,0.,-0.00028070,0.00016030,0.00000007,0
 .00015243,0.00016342,0.,-0.03762455,-0.30843760,0.00001099,0.00015352,
 -0.01765318,0.00000057,-0.00160894,-0.00217692,0.00000002,0.00007671,0
 .00002861,-0.00000002,-0.00072698,0.00050241,-0.00000004,-0.00013238,-
 0.00001812,0.,-0.00001103,-0.00000306,0.,0.03775572,0.33187666,0.00000
 008,0.,0.00001050,-0.00000001,0.00000010,0.00047311,0.00000008,0.00000
 030,-0.00016566,0.00000137,0.00000311,0.00420476,0.00000055,0.00000006
 ,0.00332999,-0.00000043,0.,-0.00189984,0.00000015,0.00000005,-0.000174
 02,0.00000006,0.00000004,0.00009728,-0.00000009,0.00000007,0.00022431,
 0.00000161,0.00001095,-0.04117954,0.00000028,-0.00000204,0.00607877,-0
 .00000056,-0.00000062,-0.00631010,-0.00000002,-0.00000002,-0.00008866,
 0.00000010,-0.00000004,0.00027758,0.00000001,-0.00000002,-0.00041051,0
 .,0.,-0.00000741,-0.00000428,-0.00001203,0.02630602,0.00009553,-0.0000
 8234,0.00000003,-0.00122323,0.00061364,-0.00000012,-0.00644421,-0.0025
 9723,0.00000099,0.00053951,-0.00107965,-0.00000047,-0.00096351,0.00122
 084,-0.00000003,0.00003517,0.00001507,-0.00000004,0.00004312,-0.000447
 07,-0.00000005,0.00007109,-0.00023952,0.,-0.00003905,0.00011027,-0.000
 00004,0.00604362,0.02632756,-0.00000072,-0.05254155,-0.01035843,0.0000
 0207,0.00719005,-0.02676322,-0.00000014,-0.00149165,-0.00104176,0.0000
 0045,0.00015379,-0.00017097,0.00000001,-0.00002051,0.00000285,0.000000
 02,0.00001226,0.00000118,0.,-0.00390179,0.00207737,0.00000123,0.055749
 74,-0.00009123,0.00004574,0.,-0.00133521,-0.00012571,-0.00000002,-0.00
 258806,0.00052559,0.00000022,-0.00138843,-0.00016804,0.00000005,-0.000
 47729,0.00000745,0.00000013,0.00019418,-0.00011624,0.00000002,0.000028
 52,0.00048938,-0.00000004,-0.00003823,0.00004309,0.,-0.00004866,-0.000
 05507,0.,-0.00238306,-0.01364153,0.00000058,-0.01222818,-0.32441308,0.
 00000515,0.00439590,-0.01079887,-0.00000005,-0.00023075,0.00064339,0.0
 0000004,-0.00004023,0.00014577,-0.00000001,0.00001458,-0.00001184,0.,0
 .00001748,0.00000722,0.,0.00200872,-0.00042445,0.,0.01015560,0.3487559
 9,0.,0.00000005,0.00023469,0.00000002,-0.00000002,-0.00062584,0.000001
 01,0.00000028,0.00334532,-0.00000030,-0.00000004,-0.00496785,0.0000003
 4,-0.00000030,-0.00014204,-0.00000018,0.00000003,-0.00010461,-0.000000
 16,0.00000009,-0.00037199,0.00000007,0.00000012,-0.00002554,0.00000001
 ,-0.00000018,-0.00031923,-0.00000055,-0.00000193,0.00394242,0.00000231
 ,0.00000450,-0.03043125,-0.00000089,0.00000278,-0.00157643,0.00000039,
 0.00000041,0.00104560,-0.00000003,0.00000004,0.00010232,0.00000002,0.0
 0000001,0.00010013,0.,0.,0.00004968,0.00000119,0.00000016,0.00943767,-
 0.00000365,-0.00000554,0.02013774,-0.04182904,-0.00644296,0.00000274,0
 .00018405,-0.00007513,-0.00000002,0.00022689,0.00017987,-0.00000003,0.
 00060431,0.00069593,-0.00000008,-0.00074389,-0.00028013,0.00000002,0.0
 0087192,-0.00185983,0.00000021,0.00245735,-0.00230849,-0.00000011,-0.0
 0733114,0.00061802,0.00000062,-0.01336877,-0.04949686,0.00000453,-0.00
 062526,0.00021345,0.00000001,0.00056759,-0.00010818,-0.00000004,-0.000
 66503,-0.00012785,0.00000007,0.00024376,0.00000582,-0.00000001,-0.0004
 5131,-0.00004132,0.,-0.00063086,0.00228660,-0.00000010,0.00004887,-0.0
 0001973,-0.00000004,0.00005839,0.00004378,-0.00000001,-0.00004721,0.00
 002959,0.00000001,0.06042537,-0.05919616,-0.47609549,0.00004177,0.0001
 9693,-0.00007480,-0.00000002,0.00019510,0.00021115,-0.00000002,0.00093
 134,0.00079183,-0.00000010,-0.00045540,-0.00164599,0.00000010,-0.00021
 343,-0.00101777,0.00000025,0.00607677,0.00540877,-0.00000098,-0.001831
 46,0.00316913,0.00000013,-0.00032706,-0.01535812,0.00000100,-0.0009052
 5,-0.00010134,0.00000005,0.00079402,-0.00008734,-0.00000005,-0.0007531
 4,-0.00024247,0.00000008,0.00023918,0.00006047,-0.00000002,-0.00028664
 ,0.00000012,-0.00000001,-0.00134754,-0.00066974,0.00000020,0.00018239,
 0.00047709,-0.00000010,0.00001347,-0.00001656,-0.00000001,-0.00000143,
 0.00000319,0.,0.05668359,0.48517559,0.00000685,0.00003829,-0.00548164,
 -0.00000003,0.00000001,-0.00001591,-0.00000003,-0.00000003,-0.00002921
 ,-0.00000009,-0.00000008,0.00015678,0.00000003,0.00000009,-0.00068197,
 0.00000007,0.00000035,0.00180015,-0.00000066,-0.00000041,-0.00145259,0
 .00000081,-0.00000005,0.00320343,0.00000076,0.00000433,-0.00278350,0.0
 0000010,-0.00000002,-0.00018014,-0.00000010,0.00000001,0.00002640,0.00
 000011,0.00000003,0.00006591,-0.00000003,0.,0.00006473,0.00000002,-0.0
 0000003,-0.00037723,0.00000002,-0.00000012,0.00045667,-0.00000006,-0.0
 0000008,-0.00060902,0.,0.,-0.00001716,0.,0.,-0.00000392,-0.00000777,-0
 .00004227,0.00584998,-0.00044388,-0.00012636,0.00000003,-0.06615040,-0
 .05235319,0.00000095,-0.00828860,0.00831255,-0.00000001,-0.00027840,-0
 .00023753,0.00000007,0.00004258,0.00021743,-0.00000002,0.00017704,-0.0
 0013133,-0.00000001,-0.00022949,0.00011075,0.,-0.00012508,-0.00020256,
 0.00000002,0.00036093,0.00006230,-0.00000002,0.00184026,0.00011711,-0.
 00000015,-0.00363939,-0.00128692,0.00000023,0.01951490,0.01443090,0.00
 000002,0.00005379,0.00003585,0.,0.00004094,-0.00001673,0.,-0.00003790,
 -0.00002794,0.,-0.00001953,0.00000583,0.,0.00039004,0.00037279,-0.0000
 0011,-0.00220738,0.00199635,0.00000028,0.00004955,0.00004891,0.,0.5268
 2015,-0.00009637,-0.00004414,0.00000001,-0.02840244,-0.11562317,0.0000
 0124,0.00266272,-0.00162460,-0.00000001,-0.00028360,0.00009583,-0.0000
 0003,0.00001789,0.00022398,0.,0.00005275,-0.00010023,0.,-0.00010776,0.
 00000389,0.,-0.00003717,-0.00007385,0.00000001,0.00008602,0.00001816,0
 .,-0.00047300,-0.00077892,0.00000010,-0.00038098,0.00197274,0.00000007
 ,-0.00038891,-0.01063754,-0.00000058,-0.00003685,-0.00006115,0.,-0.000
 00588,0.00000453,0.,-0.00000522,-0.00000297,0.,-0.00000387,-0.00000226
 ,0.,0.00000181,-0.00027851,0.00000006,-0.00002883,-0.00079676,0.,-0.00
 000454,0.00001690,0.,-0.03563585,0.33691767,0.00000004,0.00000002,0.00
 000063,0.00000184,0.00000222,-0.03038437,0.00000045,-0.00000042,0.0046
 5496,0.00000007,0.00000001,0.00028884,0.,-0.00000005,-0.00001642,-0.00
 000001,0.00000003,0.00001735,0.,0.,-0.00007282,0.00000002,0.00000002,-
 0.00002280,-0.00000004,-0.00000002,0.00000316,-0.00000031,0.,-0.000281
 46,0.00000043,0.00000004,-0.00116150,-0.00000112,-0.00000054,-0.004430
 31,0.,0.,0.00011941,0.,0.,0.00001093,0.,0.,0.00001071,0.,0.,-0.0000024
 0,-0.00000003,-0.00000008,-0.00015315,0.00000027,-0.00000030,0.0013321
 2,0.,0.,0.00001032,0.00000077,-0.00000174,0.53042366,-0.00006625,-0.00
 001101,0.,0.00856634,-0.00539072,-0.00000099,0.00133849,-0.00169988,0.
 00000013,0.00003641,-0.00002619,0.,0.00004232,-0.00006022,0.,0.0000069
 3,-0.00000167,0.,-0.00001798,0.00004424,0.,-0.00001030,-0.00001041,0.,
 0.00005176,-0.00000522,0.,0.00030291,0.00056787,-0.00000003,-0.0001003
 2,-0.00087793,0.00000014,-0.00302153,-0.00124486,-0.00000029,0.0000200
 7,0.00002921,0.,0.00000160,0.00000063,0.,-0.00000445,-0.00000439,0.,-0
 .00000249,0.00000111,0.,-0.00019746,0.00004366,0.00000001,0.00020986,0
 .00071572,-0.00000007,0.00001180,0.00000591,0.,-0.23654225,0.12073924,
 0.00002657,0.25333677,0.00013454,0.00004304,-0.00000001,0.02038754,-0.
 01550977,-0.00000234,0.00318240,-0.00324080,0.00000013,0.00009060,0.00
 006145,0.,0.00002359,-0.00009934,0.,-0.00005253,0.00004218,0.,0.000067
 91,-0.00001972,0.,0.00003740,0.00006339,0.,-0.00011193,-0.00002632,0.,
 -0.00027037,0.00040803,0.,0.00035943,0.00084402,0.,-0.00791269,-0.0027
 5395,-0.00000008,-0.00000294,-0.00000408,0.,-0.00001250,0.00000415,0.,
 0.00001193,0.00000837,0.,0.00000597,-0.00000054,0.,-0.00031702,-0.0000
 7663,0.00000004,0.00064985,-0.00021134,-0.00000004,-0.00001320,-0.0000
 1503,0.,0.12523156,-0.11316581,-0.00001717,-0.12870838,0.12475480,0.,0
 .,-0.00000301,-0.00000063,0.00000013,-0.00017152,-0.00000007,0.0000000
 8,0.00036141,0.,0.,0.00005104,0.,0.00000002,0.00000438,0.,0.,-0.000000
 32,0.,0.,0.00000596,0.,0.,-0.00000059,0.,0.,0.00000225,0.00000002,-0.0
 0000004,0.00003409,-0.00000003,0.00000012,0.00043249,0.00000002,0.0000
 0026,-0.00098333,0.,0.,-0.00002086,0.,0.,-0.00000155,0.,0.,-0.00000149
 ,0.,0.,-0.00000029,0.,0.,-0.00005812,-0.00000002,-0.00000004,-0.000369
 47,0.,0.,0.00000100,0.00002695,-0.00001661,-0.04243364,-0.00002910,0.0
 0001772,0.04193210,0.00023483,0.00006040,0.00000313,-0.00285956,-0.003
 18882,0.00300718,0.00002958,0.00024122,0.00019575,0.00016563,0.0000318
 5,-0.00005185,-0.00007344,-0.00006033,0.00001285,-0.00006962,0.0000762
 7,-0.00000915,0.00011799,-0.00008200,-0.00000368,0.00005843,0.00008297
 ,0.00001281,-0.00019282,-0.00001504,-0.00000518,-0.00036806,0.00004554
 ,0.00009207,0.00063127,-0.00012565,0.00033712,-0.00004541,0.00051740,-
 0.00120850,-0.00002635,-0.00002021,-0.00000846,-0.00001019,-0.00000190
 ,-0.00000708,0.00001506,0.00001338,0.00000001,0.00001099,-0.00000263,0
 .00000143,0.00000743,0.00000455,-0.00005819,-0.00063168,0.00064617,-0.
 00053334,-0.00002868,-0.00002506,-0.00000117,-0.11563627,-0.02883235,0
 .11406769,-0.01197886,-0.00639115,0.02141248,0.12153612,-0.00005601,-0
 .00000794,-0.00000025,-0.01449311,-0.01737336,0.01652189,0.00054825,-0
 .00012209,-0.00101901,0.00000259,-0.00003251,-0.00004824,0.00004793,-0
 .00004436,-0.00000186,0.00001989,-0.00001116,0.00000223,-0.00002168,0.
 00004331,-0.00000801,-0.00001128,-0.00001215,-0.00000667,0.00004699,-0
 .00000750,-0.00000010,0.00056862,0.00036002,-0.00005556,-0.00001051,-0
 .00069786,-0.00034351,-0.00187931,0.00180412,0.00116509,0.00001767,0.0
 0004399,0.00001972,-0.00000131,0.00000189,0.00000376,-0.00000187,-0.00
 000256,0.00000237,-0.00000175,0.00000115,0.00000156,-0.00011320,0.0001
 0478,0.00009439,0.00081795,0.00004818,0.00055235,0.00001079,0.00000520
 ,0.00000250,-0.03045904,-0.04803429,0.05177171,0.00794497,0.00444737,-
 0.01446392,0.03254973,0.05765868,0.00008503,0.00000991,0.00000070,-0.0
 0281183,-0.00036828,0.00508513,-0.00051969,-0.00004377,-0.00009288,-0.
 00002469,-0.00001826,-0.00000945,-0.00005763,0.00011140,0.00001171,0.0
 0000024,-0.00000097,0.00000316,0.00002475,-0.00005720,0.00000560,0.000
 01903,0.00000127,-0.00000037,-0.00006593,0.00000438,-0.00000051,-0.000
 17535,-0.00046221,0.00000109,0.00004978,0.00056225,0.00020701,0.001352
 24,0.00004928,0.00005412,-0.00003534,-0.00002612,-0.00002241,-0.000002
 69,-0.00000498,-0.00000028,-0.00000090,0.00000748,-0.00000216,0.000006
 37,-0.00000137,-0.00000024,0.00015171,-0.00009710,0.00001210,-0.000619
 42,0.00006396,-0.00039463,-0.00001863,-0.00000414,-0.00000154,0.113401
 92,0.04527546,-0.22898148,-0.00189953,-0.00029900,0.00060690,-0.123054
 50,-0.04944626,0.24099192,0.00023480,0.00006040,-0.00000316,-0.0028597
 8,-0.00318818,-0.00300556,0.00002964,0.00024117,-0.00019576,0.00016564
 ,0.00003185,0.00005182,-0.00007343,-0.00006035,-0.00001284,-0.00006961
 ,0.00007627,0.00000916,0.00011797,-0.00008198,0.00000368,0.00005843,0.
 00008297,-0.00001283,-0.00019280,-0.00001504,0.00000520,-0.00036801,0.
 00004566,-0.00009203,0.00063114,-0.00012573,-0.00033710,-0.00004555,0.
 00051756,0.00120838,-0.00002634,-0.00002021,0.00000848,-0.00001019,-0.
 00000189,0.00000708,0.00001506,0.00001338,-0.00000001,0.00001099,-0.00
 000262,-0.00000143,0.00000742,0.00000459,0.00005820,-0.00063196,0.0006
 4652,0.00053354,-0.00002868,-0.00002505,0.00000118,-0.11569160,-0.0288
 3682,-0.11409667,-0.01198333,-0.00638999,-0.02140961,0.00911361,0.0044
 7368,0.01419509,0.12159657,-0.00005605,-0.00000796,0.00000026,-0.01449
 713,-0.01737213,-0.01651967,0.00054803,-0.00012192,0.00101869,0.000002
 56,-0.00003253,0.00004822,0.00004792,-0.00004432,0.00000185,0.00001991
 ,-0.00001118,-0.00000224,-0.00002169,0.00004331,0.00000802,-0.00001129
 ,-0.00001218,0.00000668,0.00004703,-0.00000749,0.00000009,0.00056875,0
 .00036000,0.00005546,-0.00001045,-0.00069789,0.00034351,-0.00187910,0.
 00180473,-0.00116428,0.00001766,0.00004398,-0.00001973,-0.00000131,0.0
 0000189,-0.00000376,-0.00000188,-0.00000257,-0.00000236,-0.00000176,0.
 00000115,-0.00000156,-0.00011320,0.00010477,-0.00009438,0.00081825,0.0
 0004795,-0.00055278,0.00001080,0.00000520,-0.00000250,-0.03046487,-0.0
 4802949,-0.05175372,0.00794832,0.00444653,0.01446229,0.00447566,0.0018
 2711,0.00474429,0.03255384,0.05765301,-0.00008508,-0.00000992,0.000000
 72,0.00281286,0.00036782,0.00508386,0.00051974,0.00004374,-0.00009289,
 0.00002466,0.00001825,-0.00000944,0.00005765,-0.00011138,0.00001173,-0
 .00000023,0.00000095,0.00000316,-0.00002477,0.00005722,0.00000559,-0.0
 0001904,-0.00000128,-0.00000036,0.00006598,-0.00000438,-0.00000052,0.0
 0017548,0.00046225,0.00000104,-0.00004993,-0.00056226,0.00020710,-0.00
 135243,-0.00004938,0.00005418,0.00003534,0.00002613,-0.00002244,0.0000
 0270,0.00000498,-0.00000028,0.00000090,-0.00000748,-0.00000216,-0.0000
 0638,0.00000137,-0.00000024,-0.00015172,0.00009713,0.00001208,0.000619
 61,-0.00006414,-0.00039489,0.00001864,0.00000415,-0.00000155,-0.113430
 90,-0.04525797,-0.22893173,0.00190316,0.00030077,0.00061258,-0.0142014
 1,-0.00474417,-0.01747350,0.12308518,0.04942762,0.24093792\\-0.0000034
 5,-0.00002312,0.,0.00001983,-0.00001932,-0.00000147,-0.00001337,-0.000
 08596,-0.00000029,-0.00001803,-0.00001195,0.00000042,0.00001346,-0.000
 00348,-0.00000006,0.00001966,0.00001495,0.00000017,-0.00002497,0.00000
 031,-0.00000003,-0.00002979,-0.00003249,0.,0.00004343,0.00003579,-0.00
 000010,0.00001704,0.00001404,-0.00000035,-0.00001112,-0.00002554,-0.00
 000135,-0.00001054,0.00012225,0.00000216,-0.00000251,0.00000543,-0.000
 00009,-0.00000354,-0.00000653,0.,-0.00000007,0.00000059,-0.00000004,0.
 00000329,0.00000226,-0.00000001,-0.00000051,-0.00000588,-0.00000015,0.
 00000171,0.00000224,0.00000051,0.00000237,0.00001652,0.00000001,-0.000
 00069,-0.00000235,0.00000082,-0.00000370,-0.00000194,-0.00000035,0.000
 00017,0.00000183,-0.00000144,0.00000133,0.00000234,0.00000165\\\@


 IF THE FACTS DO NOT CONFORM TO THE THEORY, THEY MUST BE DISPOSED OF.
 Job cpu time:  0 days  0 hours 12 minutes 46.2 seconds.
 File lengths (MBytes):  RWF=    189 Int=      0 D2E=      0 Chk=     24 Scr=      1
 Normal termination of Gaussian 09 at Thu Oct 31 23:03:12 2019.
