Title                                                                   
Freq      RPBEPBE                                                     6-31G(d,p)          
Number of atoms                            I               23
Info1-9                                    I   N=           9
          31          31        1002           0           0         100
           6          18         902
Charge                                     I                0
Multiplicity                               I                1
Number of electrons                        I              102
Number of alpha electrons                  I               51
Number of beta electrons                   I               51
Number of basis functions                  I              249
Number of independent functions            I              249
Number of point charges in /Mol/           I                0
Number of translation vectors              I                0
Atomic numbers                             I   N=          23
           8          16           8           6           6           6
           6           6           6           6           6           6
           1           1           1           1           1           1
           1           6           1           1           1
Nuclear charges                            R   N=          23
  8.00000000E+00  1.60000000E+01  8.00000000E+00  6.00000000E+00  6.00000000E+00
  6.00000000E+00  6.00000000E+00  6.00000000E+00  6.00000000E+00  6.00000000E+00
  6.00000000E+00  6.00000000E+00  1.00000000E+00  1.00000000E+00  1.00000000E+00
  1.00000000E+00  1.00000000E+00  1.00000000E+00  1.00000000E+00  6.00000000E+00
  1.00000000E+00  1.00000000E+00  1.00000000E+00
Current cartesian coordinates              R   N=          69
  9.89411092E+00  1.16666520E+00 -8.44087311E-04 -7.88772242E+00  4.44772018E-01
  6.06532436E-04 -5.33542238E+00 -3.76922980E+00  5.83627607E-04  2.20641599E+00
 -7.96946513E-01 -1.92878109E-04  2.94112594E+00  1.77689928E+00 -4.55112661E-04
  4.15339804E+00 -2.63761644E+00 -1.76661184E-04  5.47929959E+00  2.47316081E+00
 -6.74370453E-04  6.69903099E+00 -1.97054821E+00 -3.90137429E-04  7.37811090E+00
  6.01051077E-01 -6.38944193E-04 -4.11367159E-01 -1.63395685E+00  5.85967274E-05
 -2.54660048E+00 -1.98115337E-01  2.18039799E-04 -5.02543608E+00 -1.46779214E+00
  4.86080876E-04  1.50105215E+00  3.25991957E+00 -5.01234645E-04  3.63048556E+00
 -4.63945135E+00  1.63926381E-05  6.00829706E+00  4.47637189E+00 -8.81887772E-04
  8.18961612E+00 -3.39953285E+00 -3.71691064E-04 -7.14330372E-01 -3.68752952E+00
  1.45431149E-04 -2.47071391E+00  1.86489678E+00  1.82215776E-04  1.00799573E+01
  3.00119107E+00 -1.00426769E-03 -6.90318467E+00  3.76315624E+00  5.97651989E-04
 -8.66599086E+00  4.86639066E+00  8.37394214E-04 -5.82474824E+00  4.25312768E+00
 -1.70787313E+00 -5.82433281E+00  4.25302910E+00  1.70883634E+00
Force Field                                I                0
Int Atom Types                             I   N=          23
           0           0           0           0           0           0
           0           0           0           0           0           0
           0           0           0           0           0           0
           0           0           0           0           0
MM charges                                 R   N=          23
  0.00000000E+00  0.00000000E+00  0.00000000E+00  0.00000000E+00  0.00000000E+00
  0.00000000E+00  0.00000000E+00  0.00000000E+00  0.00000000E+00  0.00000000E+00
  0.00000000E+00  0.00000000E+00  0.00000000E+00  0.00000000E+00  0.00000000E+00
  0.00000000E+00  0.00000000E+00  0.00000000E+00  0.00000000E+00  0.00000000E+00
  0.00000000E+00  0.00000000E+00  0.00000000E+00
Integer atomic weights                     I   N=          23
          16          32          16          12          12          12
          12          12          12          12          12          12
           1           1           1           1           1           1
           1          12           1           1           1
Real atomic weights                        R   N=          23
  1.59949146E+01  3.19720718E+01  1.59949146E+01  1.20000000E+01  1.20000000E+01
  1.20000000E+01  1.20000000E+01  1.20000000E+01  1.20000000E+01  1.20000000E+01
  1.20000000E+01  1.20000000E+01  1.00782504E+00  1.00782504E+00  1.00782504E+00
  1.00782504E+00  1.00782504E+00  1.00782504E+00  1.00782504E+00  1.20000000E+01
  1.00782504E+00  1.00782504E+00  1.00782504E+00
Atom fragment info                         I   N=          23
           0           0           0           0           0           0
           0           0           0           0           0           0
           0           0           0           0           0           0
           0           0           0           0           0
Atom residue num                           I   N=          23
           0           0           0           0           0           0
           0           0           0           0           0           0
           0           0           0           0           0           0
           0           0           0           0           0
Nuclear spins                              I   N=          23
           0           0           0           0           0           0
           0           0           0           0           0           0
           1           1           1           1           1           1
           1           0           1           1           1
Nuclear ZEff                               R   N=          23
 -5.60000000E+00 -1.36000000E+01 -5.60000000E+00 -3.60000000E+00 -3.60000000E+00
 -3.60000000E+00 -3.60000000E+00 -3.60000000E+00 -3.60000000E+00 -3.60000000E+00
 -3.60000000E+00 -3.60000000E+00 -1.00000000E+00 -1.00000000E+00 -1.00000000E+00
 -1.00000000E+00 -1.00000000E+00 -1.00000000E+00 -1.00000000E+00 -3.60000000E+00
 -1.00000000E+00 -1.00000000E+00 -1.00000000E+00
Nuclear QMom                               R   N=          23
  0.00000000E+00  0.00000000E+00  0.00000000E+00  0.00000000E+00  0.00000000E+00
  0.00000000E+00  0.00000000E+00  0.00000000E+00  0.00000000E+00  0.00000000E+00
  0.00000000E+00  0.00000000E+00  0.00000000E+00  0.00000000E+00  0.00000000E+00
  0.00000000E+00  0.00000000E+00  0.00000000E+00  0.00000000E+00  0.00000000E+00
  0.00000000E+00  0.00000000E+00  0.00000000E+00
Nuclear GFac                               R   N=          23
  0.00000000E+00  0.00000000E+00  0.00000000E+00  0.00000000E+00  0.00000000E+00
  0.00000000E+00  0.00000000E+00  0.00000000E+00  0.00000000E+00  0.00000000E+00
  0.00000000E+00  0.00000000E+00  2.79284600E+00  2.79284600E+00  2.79284600E+00
  2.79284600E+00  2.79284600E+00  2.79284600E+00  2.79284600E+00  0.00000000E+00
  2.79284600E+00  2.79284600E+00  2.79284600E+00
MicOpt                                     I   N=          23
          -1          -1          -1          -1          -1          -1
          -1          -1          -1          -1          -1          -1
          -1          -1          -1          -1          -1          -1
          -1          -1          -1          -1          -1
Number of contracted shells                I               83
Number of primitive shells                 I              199
Pure/Cartesian d shells                    I                1
Pure/Cartesian f shells                    I                0
Highest angular momentum                   I                2
Largest degree of contraction              I                6
Shell types                                I   N=          83
           0          -1          -1           2           0          -1
          -1          -1           2           0          -1          -1
           2           0          -1          -1           2           0
          -1          -1           2           0          -1          -1
           2           0          -1          -1           2           0
          -1          -1           2           0          -1          -1
           2           0          -1          -1           2           0
          -1          -1           2           0          -1          -1
           2           0           0           1           0           0
           1           0           0           1           0           0
           1           0           0           1           0           0
           1           0           0           1           0          -1
          -1           2           0           0           1           0
           0           1           0           0           1
Number of primitives per shell             I   N=          83
           6           3           1           1           6           6
           3           1           1           6           3           1
           1           6           3           1           1           6
           3           1           1           6           3           1
           1           6           3           1           1           6
           3           1           1           6           3           1
           1           6           3           1           1           6
           3           1           1           6           3           1
           1           3           1           1           3           1
           1           3           1           1           3           1
           1           3           1           1           3           1
           1           3           1           1           6           3
           1           1           3           1           1           3
           1           1           3           1           1
Shell to atom map                          I   N=          83
           1           1           1           1           2           2
           2           2           2           3           3           3
           3           4           4           4           4           5
           5           5           5           6           6           6
           6           7           7           7           7           8
           8           8           8           9           9           9
           9          10          10          10          10          11
          11          11          11          12          12          12
          12          13          13          13          14          14
          14          15          15          15          16          16
          16          17          17          17          18          18
          18          19          19          19          20          20
          20          20          21          21          21          22
          22          22          23          23          23
Primitive exponents                        R   N=         199
  5.48467166E+03  8.25234946E+02  1.88046958E+02  5.29645000E+01  1.68975704E+01
  5.79963534E+00  1.55396162E+01  3.59993359E+00  1.01376175E+00  2.70005823E-01
  8.00000000E-01  2.19171000E+04  3.30149000E+03  7.54146000E+02  2.12711000E+02
  6.79896000E+01  2.30515000E+01  4.23735000E+02  1.00710000E+02  3.21599000E+01
  1.18079000E+01  4.63110000E+00  1.87025000E+00  2.61584000E+00  9.22167000E-01
  3.41287000E-01  1.17167000E-01  6.50000000E-01  5.48467166E+03  8.25234946E+02
  1.88046958E+02  5.29645000E+01  1.68975704E+01  5.79963534E+00  1.55396162E+01
  3.59993359E+00  1.01376175E+00  2.70005823E-01  8.00000000E-01  3.04752488E+03
  4.57369518E+02  1.03948685E+02  2.92101553E+01  9.28666296E+00  3.16392696E+00
  7.86827235E+00  1.88128854E+00  5.44249258E-01  1.68714478E-01  8.00000000E-01
  3.04752488E+03  4.57369518E+02  1.03948685E+02  2.92101553E+01  9.28666296E+00
  3.16392696E+00  7.86827235E+00  1.88128854E+00  5.44249258E-01  1.68714478E-01
  8.00000000E-01  3.04752488E+03  4.57369518E+02  1.03948685E+02  2.92101553E+01
  9.28666296E+00  3.16392696E+00  7.86827235E+00  1.88128854E+00  5.44249258E-01
  1.68714478E-01  8.00000000E-01  3.04752488E+03  4.57369518E+02  1.03948685E+02
  2.92101553E+01  9.28666296E+00  3.16392696E+00  7.86827235E+00  1.88128854E+00
  5.44249258E-01  1.68714478E-01  8.00000000E-01  3.04752488E+03  4.57369518E+02
  1.03948685E+02  2.92101553E+01  9.28666296E+00  3.16392696E+00  7.86827235E+00
  1.88128854E+00  5.44249258E-01  1.68714478E-01  8.00000000E-01  3.04752488E+03
  4.57369518E+02  1.03948685E+02  2.92101553E+01  9.28666296E+00  3.16392696E+00
  7.86827235E+00  1.88128854E+00  5.44249258E-01  1.68714478E-01  8.00000000E-01
  3.04752488E+03  4.57369518E+02  1.03948685E+02  2.92101553E+01  9.28666296E+00
  3.16392696E+00  7.86827235E+00  1.88128854E+00  5.44249258E-01  1.68714478E-01
  8.00000000E-01  3.04752488E+03  4.57369518E+02  1.03948685E+02  2.92101553E+01
  9.28666296E+00  3.16392696E+00  7.86827235E+00  1.88128854E+00  5.44249258E-01
  1.68714478E-01  8.00000000E-01  3.04752488E+03  4.57369518E+02  1.03948685E+02
  2.92101553E+01  9.28666296E+00  3.16392696E+00  7.86827235E+00  1.88128854E+00
  5.44249258E-01  1.68714478E-01  8.00000000E-01  1.87311370E+01  2.82539436E+00
  6.40121692E-01  1.61277759E-01  1.10000000E+00  1.87311370E+01  2.82539436E+00
  6.40121692E-01  1.61277759E-01  1.10000000E+00  1.87311370E+01  2.82539436E+00
  6.40121692E-01  1.61277759E-01  1.10000000E+00  1.87311370E+01  2.82539436E+00
  6.40121692E-01  1.61277759E-01  1.10000000E+00  1.87311370E+01  2.82539436E+00
  6.40121692E-01  1.61277759E-01  1.10000000E+00  1.87311370E+01  2.82539436E+00
  6.40121692E-01  1.61277759E-01  1.10000000E+00  1.87311370E+01  2.82539436E+00
  6.40121692E-01  1.61277759E-01  1.10000000E+00  3.04752488E+03  4.57369518E+02
  1.03948685E+02  2.92101553E+01  9.28666296E+00  3.16392696E+00  7.86827235E+00
  1.88128854E+00  5.44249258E-01  1.68714478E-01  8.00000000E-01  1.87311370E+01
  2.82539436E+00  6.40121692E-01  1.61277759E-01  1.10000000E+00  1.87311370E+01
  2.82539436E+00  6.40121692E-01  1.61277759E-01  1.10000000E+00  1.87311370E+01
  2.82539436E+00  6.40121692E-01  1.61277759E-01  1.10000000E+00
Contraction coefficients                   R   N=         199
  1.83107443E-03  1.39501722E-02  6.84450781E-02  2.32714336E-01  4.70192898E-01
  3.58520853E-01 -1.10777550E-01 -1.48026263E-01  1.13076702E+00  1.00000000E+00
  1.00000000E+00  1.86924085E-03  1.42303065E-02  6.96962317E-02  2.38487108E-01
  4.83307220E-01  3.38074154E-01 -2.37677050E-03 -3.16930067E-02 -1.13317024E-01
  5.60900118E-02  5.92255124E-01  4.55006095E-01 -2.50373114E-01  6.69567631E-02
  1.05450627E+00  1.00000000E+00  1.00000000E+00  1.83107443E-03  1.39501722E-02
  6.84450781E-02  2.32714336E-01  4.70192898E-01  3.58520853E-01 -1.10777550E-01
 -1.48026263E-01  1.13076702E+00  1.00000000E+00  1.00000000E+00  1.83473713E-03
  1.40373228E-02  6.88426223E-02  2.32184443E-01  4.67941348E-01  3.62311985E-01
 -1.19332420E-01 -1.60854152E-01  1.14345644E+00  1.00000000E+00  1.00000000E+00
  1.83473713E-03  1.40373228E-02  6.88426223E-02  2.32184443E-01  4.67941348E-01
  3.62311985E-01 -1.19332420E-01 -1.60854152E-01  1.14345644E+00  1.00000000E+00
  1.00000000E+00  1.83473713E-03  1.40373228E-02  6.88426223E-02  2.32184443E-01
  4.67941348E-01  3.62311985E-01 -1.19332420E-01 -1.60854152E-01  1.14345644E+00
  1.00000000E+00  1.00000000E+00  1.83473713E-03  1.40373228E-02  6.88426223E-02
  2.32184443E-01  4.67941348E-01  3.62311985E-01 -1.19332420E-01 -1.60854152E-01
  1.14345644E+00  1.00000000E+00  1.00000000E+00  1.83473713E-03  1.40373228E-02
  6.88426223E-02  2.32184443E-01  4.67941348E-01  3.62311985E-01 -1.19332420E-01
 -1.60854152E-01  1.14345644E+00  1.00000000E+00  1.00000000E+00  1.83473713E-03
  1.40373228E-02  6.88426223E-02  2.32184443E-01  4.67941348E-01  3.62311985E-01
 -1.19332420E-01 -1.60854152E-01  1.14345644E+00  1.00000000E+00  1.00000000E+00
  1.83473713E-03  1.40373228E-02  6.88426223E-02  2.32184443E-01  4.67941348E-01
  3.62311985E-01 -1.19332420E-01 -1.60854152E-01  1.14345644E+00  1.00000000E+00
  1.00000000E+00  1.83473713E-03  1.40373228E-02  6.88426223E-02  2.32184443E-01
  4.67941348E-01  3.62311985E-01 -1.19332420E-01 -1.60854152E-01  1.14345644E+00
  1.00000000E+00  1.00000000E+00  1.83473713E-03  1.40373228E-02  6.88426223E-02
  2.32184443E-01  4.67941348E-01  3.62311985E-01 -1.19332420E-01 -1.60854152E-01
  1.14345644E+00  1.00000000E+00  1.00000000E+00  3.34946043E-02  2.34726953E-01
  8.13757326E-01  1.00000000E+00  1.00000000E+00  3.34946043E-02  2.34726953E-01
  8.13757326E-01  1.00000000E+00  1.00000000E+00  3.34946043E-02  2.34726953E-01
  8.13757326E-01  1.00000000E+00  1.00000000E+00  3.34946043E-02  2.34726953E-01
  8.13757326E-01  1.00000000E+00  1.00000000E+00  3.34946043E-02  2.34726953E-01
  8.13757326E-01  1.00000000E+00  1.00000000E+00  3.34946043E-02  2.34726953E-01
  8.13757326E-01  1.00000000E+00  1.00000000E+00  3.34946043E-02  2.34726953E-01
  8.13757326E-01  1.00000000E+00  1.00000000E+00  1.83473713E-03  1.40373228E-02
  6.88426223E-02  2.32184443E-01  4.67941348E-01  3.62311985E-01 -1.19332420E-01
 -1.60854152E-01  1.14345644E+00  1.00000000E+00  1.00000000E+00  3.34946043E-02
  2.34726953E-01  8.13757326E-01  1.00000000E+00  1.00000000E+00  3.34946043E-02
  2.34726953E-01  8.13757326E-01  1.00000000E+00  1.00000000E+00  3.34946043E-02
  2.34726953E-01  8.13757326E-01  1.00000000E+00  1.00000000E+00
P(S=P) Contraction coefficients            R   N=         199
  0.00000000E+00  0.00000000E+00  0.00000000E+00  0.00000000E+00  0.00000000E+00
  0.00000000E+00  7.08742682E-02  3.39752839E-01  7.27158577E-01  1.00000000E+00
  0.00000000E+00  0.00000000E+00  0.00000000E+00  0.00000000E+00  0.00000000E+00
  0.00000000E+00  0.00000000E+00  4.06100998E-03  3.06812999E-02  1.30451999E-01
  3.27204999E-01  4.52850998E-01  2.56041999E-01 -1.45104895E-02  3.10262776E-01
  7.54482456E-01  1.00000000E+00  0.00000000E+00  0.00000000E+00  0.00000000E+00
  0.00000000E+00  0.00000000E+00  0.00000000E+00  0.00000000E+00  7.08742682E-02
  3.39752839E-01  7.27158577E-01  1.00000000E+00  0.00000000E+00  0.00000000E+00
  0.00000000E+00  0.00000000E+00  0.00000000E+00  0.00000000E+00  0.00000000E+00
  6.89990666E-02  3.16423961E-01  7.44308291E-01  1.00000000E+00  0.00000000E+00
  0.00000000E+00  0.00000000E+00  0.00000000E+00  0.00000000E+00  0.00000000E+00
  0.00000000E+00  6.89990666E-02  3.16423961E-01  7.44308291E-01  1.00000000E+00
  0.00000000E+00  0.00000000E+00  0.00000000E+00  0.00000000E+00  0.00000000E+00
  0.00000000E+00  0.00000000E+00  6.89990666E-02  3.16423961E-01  7.44308291E-01
  1.00000000E+00  0.00000000E+00  0.00000000E+00  0.00000000E+00  0.00000000E+00
  0.00000000E+00  0.00000000E+00  0.00000000E+00  6.89990666E-02  3.16423961E-01
  7.44308291E-01  1.00000000E+00  0.00000000E+00  0.00000000E+00  0.00000000E+00
  0.00000000E+00  0.00000000E+00  0.00000000E+00  0.00000000E+00  6.89990666E-02
  3.16423961E-01  7.44308291E-01  1.00000000E+00  0.00000000E+00  0.00000000E+00
  0.00000000E+00  0.00000000E+00  0.00000000E+00  0.00000000E+00  0.00000000E+00
  6.89990666E-02  3.16423961E-01  7.44308291E-01  1.00000000E+00  0.00000000E+00
  0.00000000E+00  0.00000000E+00  0.00000000E+00  0.00000000E+00  0.00000000E+00
  0.00000000E+00  6.89990666E-02  3.16423961E-01  7.44308291E-01  1.00000000E+00
  0.00000000E+00  0.00000000E+00  0.00000000E+00  0.00000000E+00  0.00000000E+00
  0.00000000E+00  0.00000000E+00  6.89990666E-02  3.16423961E-01  7.44308291E-01
  1.00000000E+00  0.00000000E+00  0.00000000E+00  0.00000000E+00  0.00000000E+00
  0.00000000E+00  0.00000000E+00  0.00000000E+00  6.89990666E-02  3.16423961E-01
  7.44308291E-01  1.00000000E+00  0.00000000E+00  0.00000000E+00  0.00000000E+00
  0.00000000E+00  0.00000000E+00  0.00000000E+00  0.00000000E+00  0.00000000E+00
  0.00000000E+00  0.00000000E+00  0.00000000E+00  0.00000000E+00  0.00000000E+00
  0.00000000E+00  0.00000000E+00  0.00000000E+00  0.00000000E+00  0.00000000E+00
  0.00000000E+00  0.00000000E+00  0.00000000E+00  0.00000000E+00  0.00000000E+00
  0.00000000E+00  0.00000000E+00  0.00000000E+00  0.00000000E+00  0.00000000E+00
  0.00000000E+00  0.00000000E+00  0.00000000E+00  0.00000000E+00  0.00000000E+00
  0.00000000E+00  0.00000000E+00  0.00000000E+00  0.00000000E+00  0.00000000E+00
  0.00000000E+00  0.00000000E+00  0.00000000E+00  0.00000000E+00  6.89990666E-02
  3.16423961E-01  7.44308291E-01  1.00000000E+00  0.00000000E+00  0.00000000E+00
  0.00000000E+00  0.00000000E+00  0.00000000E+00  0.00000000E+00  0.00000000E+00
  0.00000000E+00  0.00000000E+00  0.00000000E+00  0.00000000E+00  0.00000000E+00
  0.00000000E+00  0.00000000E+00  0.00000000E+00  0.00000000E+00
Coordinates of each shell                  R   N=         249
  9.89411092E+00  1.16666520E+00 -8.44087311E-04  9.89411092E+00  1.16666520E+00
 -8.44087311E-04  9.89411092E+00  1.16666520E+00 -8.44087311E-04  9.89411092E+00
  1.16666520E+00 -8.44087311E-04 -7.88772242E+00  4.44772018E-01  6.06532436E-04
 -7.88772242E+00  4.44772018E-01  6.06532436E-04 -7.88772242E+00  4.44772018E-01
  6.06532436E-04 -7.88772242E+00  4.44772018E-01  6.06532436E-04 -7.88772242E+00
  4.44772018E-01  6.06532436E-04 -5.33542238E+00 -3.76922980E+00  5.83627607E-04
 -5.33542238E+00 -3.76922980E+00  5.83627607E-04 -5.33542238E+00 -3.76922980E+00
  5.83627607E-04 -5.33542238E+00 -3.76922980E+00  5.83627607E-04  2.20641599E+00
 -7.96946513E-01 -1.92878109E-04  2.20641599E+00 -7.96946513E-01 -1.92878109E-04
  2.20641599E+00 -7.96946513E-01 -1.92878109E-04  2.20641599E+00 -7.96946513E-01
 -1.92878109E-04  2.94112594E+00  1.77689928E+00 -4.55112661E-04  2.94112594E+00
  1.77689928E+00 -4.55112661E-04  2.94112594E+00  1.77689928E+00 -4.55112661E-04
  2.94112594E+00  1.77689928E+00 -4.55112661E-04  4.15339804E+00 -2.63761644E+00
 -1.76661184E-04  4.15339804E+00 -2.63761644E+00 -1.76661184E-04  4.15339804E+00
 -2.63761644E+00 -1.76661184E-04  4.15339804E+00 -2.63761644E+00 -1.76661184E-04
  5.47929959E+00  2.47316081E+00 -6.74370453E-04  5.47929959E+00  2.47316081E+00
 -6.74370453E-04  5.47929959E+00  2.47316081E+00 -6.74370453E-04  5.47929959E+00
  2.47316081E+00 -6.74370453E-04  6.69903099E+00 -1.97054821E+00 -3.90137429E-04
  6.69903099E+00 -1.97054821E+00 -3.90137429E-04  6.69903099E+00 -1.97054821E+00
 -3.90137429E-04  6.69903099E+00 -1.97054821E+00 -3.90137429E-04  7.37811090E+00
  6.01051077E-01 -6.38944193E-04  7.37811090E+00  6.01051077E-01 -6.38944193E-04
  7.37811090E+00  6.01051077E-01 -6.38944193E-04  7.37811090E+00  6.01051077E-01
 -6.38944193E-04 -4.11367159E-01 -1.63395685E+00  5.85967274E-05 -4.11367159E-01
 -1.63395685E+00  5.85967274E-05 -4.11367159E-01 -1.63395685E+00  5.85967274E-05
 -4.11367159E-01 -1.63395685E+00  5.85967274E-05 -2.54660048E+00 -1.98115337E-01
  2.18039799E-04 -2.54660048E+00 -1.98115337E-01  2.18039799E-04 -2.54660048E+00
 -1.98115337E-01  2.18039799E-04 -2.54660048E+00 -1.98115337E-01  2.18039799E-04
 -5.02543608E+00 -1.46779214E+00  4.86080876E-04 -5.02543608E+00 -1.46779214E+00
  4.86080876E-04 -5.02543608E+00 -1.46779214E+00  4.86080876E-04 -5.02543608E+00
 -1.46779214E+00  4.86080876E-04  1.50105215E+00  3.25991957E+00 -5.01234645E-04
  1.50105215E+00  3.25991957E+00 -5.01234645E-04  1.50105215E+00  3.25991957E+00
 -5.01234645E-04  3.63048556E+00 -4.63945135E+00  1.63926381E-05  3.63048556E+00
 -4.63945135E+00  1.63926381E-05  3.63048556E+00 -4.63945135E+00  1.63926381E-05
  6.00829706E+00  4.47637189E+00 -8.81887772E-04  6.00829706E+00  4.47637189E+00
 -8.81887772E-04  6.00829706E+00  4.47637189E+00 -8.81887772E-04  8.18961612E+00
 -3.39953285E+00 -3.71691064E-04  8.18961612E+00 -3.39953285E+00 -3.71691064E-04
  8.18961612E+00 -3.39953285E+00 -3.71691064E-04 -7.14330372E-01 -3.68752952E+00
  1.45431149E-04 -7.14330372E-01 -3.68752952E+00  1.45431149E-04 -7.14330372E-01
 -3.68752952E+00  1.45431149E-04 -2.47071391E+00  1.86489678E+00  1.82215776E-04
 -2.47071391E+00  1.86489678E+00  1.82215776E-04 -2.47071391E+00  1.86489678E+00
  1.82215776E-04  1.00799573E+01  3.00119107E+00 -1.00426769E-03  1.00799573E+01
  3.00119107E+00 -1.00426769E-03  1.00799573E+01  3.00119107E+00 -1.00426769E-03
 -6.90318467E+00  3.76315624E+00  5.97651989E-04 -6.90318467E+00  3.76315624E+00
  5.97651989E-04 -6.90318467E+00  3.76315624E+00  5.97651989E-04 -6.90318467E+00
  3.76315624E+00  5.97651989E-04 -8.66599086E+00  4.86639066E+00  8.37394214E-04
 -8.66599086E+00  4.86639066E+00  8.37394214E-04 -8.66599086E+00  4.86639066E+00
  8.37394214E-04 -5.82474824E+00  4.25312768E+00 -1.70787313E+00 -5.82474824E+00
  4.25312768E+00 -1.70787313E+00 -5.82474824E+00  4.25312768E+00 -1.70787313E+00
 -5.82433281E+00  4.25302910E+00  1.70883634E+00 -5.82433281E+00  4.25302910E+00
  1.70883634E+00 -5.82433281E+00  4.25302910E+00  1.70883634E+00
Density Number of contracted shells        I              298
Density Number of primitive shells         I              298
Density Pure/Cartesian d shells            I                0
Density Pure/Cartesian f shells            I                0
Density Highest angular momentum           I                3
Density Largest degree of contraction      I                1
Density Shell types                        I   N=         298
           0           0           0           0          -1          -2
          -1          -2          -1          -2          -1          -2
          -3          -1          -2          -3           0           0
           0          -1          -2          -1          -2          -1
          -2          -1          -2          -1          -2          -1
          -2          -1          -2          -1          -2          -3
          -1          -2          -3          -1          -2          -3
           0           0           0           0          -1          -2
          -1          -2          -1          -2          -1          -2
          -3          -1          -2          -3           0           0
           0           0          -1          -2          -1          -2
          -1          -2          -1          -2          -3          -1
          -2          -3           0           0           0           0
          -1          -2          -1          -2          -1          -2
          -1          -2          -3          -1          -2          -3
           0           0           0           0          -1          -2
          -1          -2          -1          -2          -1          -2
          -3          -1          -2          -3           0           0
           0           0          -1          -2          -1          -2
          -1          -2          -1          -2          -3          -1
          -2          -3           0           0           0           0
          -1          -2          -1          -2          -1          -2
          -1          -2          -3          -1          -2          -3
           0           0           0           0          -1          -2
          -1          -2          -1          -2          -1          -2
          -3          -1          -2          -3           0           0
           0           0          -1          -2          -1          -2
          -1          -2          -1          -2          -3          -1
          -2          -3           0           0           0           0
          -1          -2          -1          -2          -1          -2
          -1          -2          -3          -1          -2          -3
           0           0           0           0          -1          -2
          -1          -2          -1          -2          -1          -2
          -3          -1          -2          -3           0           0
          -1          -2          -1          -2          -1          -2
           0           0          -1          -2          -1          -2
          -1          -2           0           0          -1          -2
          -1          -2          -1          -2           0           0
          -1          -2          -1          -2          -1          -2
           0           0          -1          -2          -1          -2
          -1          -2           0           0          -1          -2
          -1          -2          -1          -2           0           0
          -1          -2          -1          -2          -1          -2
           0           0           0           0          -1          -2
          -1          -2          -1          -2          -1          -2
          -3          -1          -2          -3           0           0
          -1          -2          -1          -2          -1          -2
           0           0          -1          -2          -1          -2
          -1          -2           0           0          -1          -2
          -1          -2          -1          -2
Density Number of primitives per shell     I   N=         298
           1           1           1           1           1           1
           1           1           1           1           1           1
           1           1           1           1           1           1
           1           1           1           1           1           1
           1           1           1           1           1           1
           1           1           1           1           1           1
           1           1           1           1           1           1
           1           1           1           1           1           1
           1           1           1           1           1           1
           1           1           1           1           1           1
           1           1           1           1           1           1
           1           1           1           1           1           1
           1           1           1           1           1           1
           1           1           1           1           1           1
           1           1           1           1           1           1