 Entering Gaussian System, Link 0=g09
 Input=freq.com
 Output=freq.log
 Initial command:
 /home/diegoa/progs/g09/l1.exe /home/diegoa/g09scratch/Gau-12523.inp -scrdir=/home/diegoa/g09scratch/
 Default is to use a total of   4 processors:
                                4 via shared-memory
                                1 via Linda
 Entering Link 1 = /home/diegoa/progs/g09/l1.exe PID=     12526.
  
 Copyright (c) 1988,1990,1992,1993,1995,1998,2003,2009, Gaussian, Inc.
                  All Rights Reserved.
  
 This is part of the Gaussian(R) 09 program.  It is based on
 the Gaussian(R) 03 system (copyright 2003, Gaussian, Inc.),
 the Gaussian(R) 98 system (copyright 1998, Gaussian, Inc.),
 the Gaussian(R) 94 system (copyright 1995, Gaussian, Inc.),
 the Gaussian 92(TM) system (copyright 1992, Gaussian, Inc.),
 the Gaussian 90(TM) system (copyright 1990, Gaussian, Inc.),
 the Gaussian 88(TM) system (copyright 1988, Gaussian, Inc.),
 the Gaussian 86(TM) system (copyright 1986, Carnegie Mellon
 University), and the Gaussian 82(TM) system (copyright 1983,
 Carnegie Mellon University). Gaussian is a federally registered
 trademark of Gaussian, Inc.
  
 This software contains proprietary and confidential information,
 including trade secrets, belonging to Gaussian, Inc.
  
 This software is provided under written license and may be
 used, copied, transmitted, or stored only in accord with that
 written license.
  
 The following legend is applicable only to US Government
 contracts under FAR:
  
                    RESTRICTED RIGHTS LEGEND
  
 Use, reproduction and disclosure by the US Government is
 subject to restrictions as set forth in subparagraphs (a)
 and (c) of the Commercial Computer Software - Restricted
 Rights clause in FAR 52.227-19.
  
 Gaussian, Inc.
 340 Quinnipiac St., Bldg. 40, Wallingford CT 06492
  
  
 ---------------------------------------------------------------
 Warning -- This program may not be used in any manner that
 competes with the business of Gaussian, Inc. or will provide
 assistance to any competitor of Gaussian, Inc.  The licensee
 of this program is prohibited from giving any competitor of
 Gaussian, Inc. access to this program.  By using this program,
 the user acknowledges that Gaussian, Inc. is engaged in the
 business of creating and licensing software in the field of
 computational chemistry and represents and warrants to the
 licensee that it is not a competitor of Gaussian, Inc. and that
 it will not use this program in any manner prohibited above.
 ---------------------------------------------------------------
  

 Cite this work as:
 Gaussian 09, Revision A.01,
 M. J. Frisch, G. W. Trucks, H. B. Schlegel, G. E. Scuseria, 
 M. A. Robb, J. R. Cheeseman, G. Scalmani, V. Barone, B. Mennucci, 
 G. A. Petersson, H. Nakatsuji, M. Caricato, X. Li, H. P. Hratchian, 
 A. F. Izmaylov, J. Bloino, G. Zheng, J. L. Sonnenberg, M. Hada, 
 M. Ehara, K. Toyota, R. Fukuda, J. Hasegawa, M. Ishida, T. Nakajima, 
 Y. Honda, O. Kitao, H. Nakai, T. Vreven, J. A. Montgomery, Jr., 
 J. E. Peralta, F. Ogliaro, M. Bearpark, J. J. Heyd, E. Brothers, 
 K. N. Kudin, V. N. Staroverov, R. Kobayashi, J. Normand, 
 K. Raghavachari, A. Rendell, J. C. Burant, S. S. Iyengar, J. Tomasi, 
 M. Cossi, N. Rega, J. M. Millam, M. Klene, J. E. Knox, J. B. Cross, 
 V. Bakken, C. Adamo, J. Jaramillo, R. Gomperts, R. E. Stratmann, 
 O. Yazyev, A. J. Austin, R. Cammi, C. Pomelli, J. W. Ochterski, 
 R. L. Martin, K. Morokuma, V. G. Zakrzewski, G. A. Voth, 
 P. Salvador, J. J. Dannenberg, S. Dapprich, A. D. Daniels, 
 O. Farkas, J. B. Foresman, J. V. Ortiz, J. Cioslowski, 
 and D. J. Fox, Gaussian, Inc., Wallingford CT, 2009.
 
 ******************************************
 Gaussian 09:  EM64L-G09RevA.01  8-May-2009
                 3-Oct-2019 
 ******************************************
 %chk=freq.chk
 %nProcShared=4
 Will use up to    4 processors via shared memory.
 Default route:  MP2=Direct MaxDisk=1000GB DenFit
 -------------------------------------
 # B3LYP/6-31G(d) Freq=savenormalmodes
 -------------------------------------
 1/10=4,30=1,38=1/1,3;
 2/12=2,17=6,18=5,40=1/2;
 3/5=1,6=6,7=1,11=2,16=1,25=1,30=1,71=2,74=-5,82=47/1,2,3;
 4//1;
 5/5=2,38=5,98=1/2;
 8/6=4,10=90,11=11/1;
 11/6=1,8=1,9=11,15=111,16=1/1,2,10;
 10/6=1/2;
 6/7=2,8=2,9=2,10=2,18=1,28=1/1;
 7/8=1,10=1,25=1,92=1/1,2,3,16;
 1/10=4,30=1/3;
 99//99;
 -----
 Title
 -----
 Symbolic Z-matrix:
 Charge =  0 Multiplicity = 1
 6                     3.07611  -0.16755   0.00003 
 6                     1.86812   0.41946  -0.00001 
 6                     0.60736  -0.29696  -0.00003 
 6                    -0.60736   0.29696  -0.00003 
 6                    -1.86812  -0.41946  -0.00001 
 6                    -3.07611   0.16755   0.00003 
 1                     0.66336  -1.38657  -0.00004 
 1                    -0.66336   1.38657  -0.00004 
 1                    -1.80551  -1.50822  -0.00001 
 1                    -3.18232   1.25011   0.00003 
 1                    -3.99363  -0.41265   0.00005 
 1                     3.99363   0.41264   0.00005 
 1                     3.18232  -1.25011   0.00003 
 1                     1.80551   1.50822  -0.00001 
 

 GradGradGradGradGradGradGradGradGradGradGradGradGradGradGradGradGradGrad
 Berny optimization.
 Initialization pass.
 Trust Radius=3.00D-01 FncErr=1.00D-07 GrdErr=1.00D-07
 Number of steps in this run=   2 maximum allowed number of steps=   2.
 GradGradGradGradGradGradGradGradGradGradGradGradGradGradGradGradGradGrad

                          Input orientation:                          
 ---------------------------------------------------------------------
 Center     Atomic      Atomic             Coordinates (Angstroms)
 Number     Number       Type             X           Y           Z
 ---------------------------------------------------------------------
      1          6           0        3.076112   -0.167551    0.000027
      2          6           0        1.868124    0.419457   -0.000005
      3          6           0        0.607363   -0.296955   -0.000028
      4          6           0       -0.607363    0.296956   -0.000028
      5          6           0       -1.868124   -0.419457   -0.000005
      6          6           0       -3.076112    0.167551    0.000027
      7          1           0        0.663363   -1.386571   -0.000036
      8          1           0       -0.663363    1.386571   -0.000036
      9          1           0       -1.805510   -1.508224   -0.000010
     10          1           0       -3.182321    1.250111    0.000025
     11          1           0       -3.993633   -0.412645    0.000053
     12          1           0        3.993633    0.412644    0.000053
     13          1           0        3.182320   -1.250111    0.000025
     14          1           0        1.805511    1.508224   -0.000010
 ---------------------------------------------------------------------
                    Distance matrix (angstroms):
                    1          2          3          4          5
     1  C    0.000000
     2  C    1.343061   0.000000
     3  C    2.472138   1.450091   0.000000
     4  C    3.712648   2.478516   1.352143   0.000000
     5  C    4.950649   3.829272   2.478516   1.450092   0.000000
     6  C    6.161343   4.950649   3.712648   2.472138   1.343061
     7  H    2.703214   2.170987   1.091054   2.109267   2.709933
     8  H    4.049564   2.709933   2.109266   1.091053   2.170987
     9  H    5.062375   4.148679   2.699839   2.166617   1.090566
    10  H    6.416989   5.118299   4.093302   2.745708   2.124752
    11  H    7.073992   5.920523   4.602450   3.459821   2.125520
    12  H    1.085574   2.125520   3.459820   4.602450   5.920523
    13  H    1.087757   2.124751   2.745708   4.093301   5.118298
    14  H    2.103009   1.090566   2.166617   2.699839   4.148680
                    6          7          8          9         10
     6  C    0.000000
     7  H    4.049564   0.000000
     8  H    2.703214   3.074170   0.000000
     9  H    2.103010   2.471868   3.111967   0.000000
    10  H    1.087758   4.662765   2.522652   3.082859   0.000000
    11  H    1.085575   4.757746   3.785218   2.447075   1.850131
    12  H    7.073992   3.785218   4.757746   6.108993   7.224657
    13  H    6.416988   2.522651   4.662764   4.994504   6.838111
    14  H    5.062376   3.111967   2.471869   4.705149   4.994506
                   11         12         13         14
    11  H    0.000000
    12  H    8.029790   0.000000
    13  H    7.224656   1.850131   0.000000
    14  H    6.108994   2.447074   3.082858   0.000000
 Stoichiometry    C6H8
 Framework group  C1[X(C6H8)]
 Deg. of freedom    36
 Full point group                 C1      NOp   1
 Largest Abelian subgroup         C1      NOp   1
 Largest concise Abelian subgroup C1      NOp   1
                         Standard orientation:                         
 ---------------------------------------------------------------------
 Center     Atomic      Atomic             Coordinates (Angstroms)
 Number     Number       Type             X           Y           Z
 ---------------------------------------------------------------------
      1          6           0       -3.076112    0.167551    0.000027
      2          6           0       -1.868124   -0.419457   -0.000005
      3          6           0       -0.607363    0.296955   -0.000028
      4          6           0        0.607363   -0.296956   -0.000028
      5          6           0        1.868124    0.419457   -0.000005
      6          6           0        3.076112   -0.167551    0.000027
      7          1           0       -0.663363    1.386571   -0.000036
      8          1           0        0.663363   -1.386571   -0.000036
      9          1           0        1.805510    1.508224   -0.000010
     10          1           0        3.182321   -1.250111    0.000025
     11          1           0        3.993633    0.412645    0.000053
     12          1           0       -3.993633   -0.412644    0.000053
     13          1           0       -3.182320    1.250111    0.000025
     14          1           0       -1.805511   -1.508224   -0.000010
 ---------------------------------------------------------------------
 Rotational constants (GHZ):     26.6503372      1.3308861      1.2675845
 Standard basis: 6-31G(d) (6D, 7F)
 There are   106 symmetry adapted basis functions of A   symmetry.
 Integral buffers will be    131072 words long.
 Raffenetti 2 integral format.
 Two-electron integral symmetry is turned on.
   106 basis functions,   200 primitive gaussians,   106 cartesian basis functions
    22 alpha electrons       22 beta electrons
       nuclear repulsion energy       193.6362050878 Hartrees.
 NAtoms=   14 NActive=   14 NUniq=   14 SFac= 7.50D-01 NAtFMM=   80 NAOKFM=F Big=F
 Standard density basis: Auto (5D, 7F)
   410 Density fitting functions
 There are   410 symmetry adapted density basis functions of A   symmetry.
 One-electron integrals computed using PRISM.
 NBasis=   106 RedAO= T  NBF=   106
 NBsUse=   106 1.00D-06 NBFU=   106
 Harris functional with IExCor=  402 diagonalized for initial guess.
 ExpMin= 1.61D-01 ExpMax= 3.05D+03 ExpMxC= 4.57D+02 IAcc=1 IRadAn=         1 AccDes= 0.00D+00
 HarFok:  IExCor=  402 AccDes= 0.00D+00 IRadAn=         1 IDoV= 1
 ScaDFX=  1.000000  1.000000  1.000000  1.000000
 FoFCou: FMM=F IPFlag=           0 FMFlag=      100000 FMFlg1=           0
         NFxFlg=           0 DoJE=T BraDBF=F KetDBF=T FulRan=T
         Omega=  0.000000  0.000000  1.000000  0.000000  0.000000 ICntrl=     500 IOpCl=  0
         NMat0=    1 NMatS0=    1 NMatT0=    0 NMatD0=    1 NMtDS0=    0 NMtDT0=    0
         I1Cent=           4 NGrid=           0.
 Petite list used in FoFCou.
 Initial guess orbital symmetries:
       Occupied  (A) (A) (A) (A) (A) (A) (A) (A) (A) (A) (A) (A)
                 (A) (A) (A) (A) (A) (A) (A) (A) (A) (A)
       Virtual   (A) (A) (A) (A) (A) (A) (A) (A) (A) (A) (A) (A)
                 (A) (A) (A) (A) (A) (A) (A) (A) (A) (A) (A) (A)
                 (A) (A) (A) (A) (A) (A) (A) (A) (A) (A) (A) (A)
                 (A) (A) (A) (A) (A) (A) (A) (A) (A) (A) (A) (A)
                 (A) (A) (A) (A) (A) (A) (A) (A) (A) (A) (A) (A)
                 (A) (A) (A) (A) (A) (A) (A) (A) (A) (A) (A) (A)
                 (A) (A) (A) (A) (A) (A) (A) (A) (A) (A) (A) (A)
 The electronic state of the initial guess is 1-A.
 Requested convergence on RMS density matrix=1.00D-08 within 128 cycles.
 Requested convergence on MAX density matrix=1.00D-06.
 Requested convergence on             energy=1.00D-06.
 No special actions if energy rises.
 Keep R1 ints in memory in canonical form, NReq=17180128.
 Integral accuracy reduced to 1.0D-05 until final iterations.
 Initial convergence to 1.0D-05 achieved.  Increase integral accuracy.
 SCF Done:  E(RB3LYP) =  -233.398566429     A.U. after   13 cycles
             Convg  =    0.2345D-08             -V/T =  2.0102
 Range of M.O.s used for correlation:     1   106
 NBasis=   106 NAE=    22 NBE=    22 NFC=     0 NFV=     0
 NROrb=    106 NOA=    22 NOB=    22 NVA=    84 NVB=    84
 Symmetrizing basis deriv contribution to polar:
 IMax=3 JMax=2 DiffMx= 0.00D+00
 G2DrvN: will do    15 centers at a time, making    1 passes doing MaxLOS=2.
 Calling FoFCou, ICntrl=  3107 FMM=F I1Cent=   0 AccDes= 0.00D+00.
 FoFDir/FoFCou used for L=0 through L=2.
 End of G2Drv Frequency-dependent properties file   721 does not exist.
 End of G2Drv Frequency-dependent properties file   722 does not exist.
          IDoAtm=11111111111111
          Differentiating once with respect to electric field.
                with respect to dipole field.
          Differentiating once with respect to nuclear coordinates.
          Keep R1 ints in memory in canonical form, NReq=16907050.
          There are    45 degrees of freedom in the 1st order CPHF.  IDoFFX=5.
     42 vectors produced by pass  0 Test12= 4.11D-15 2.22D-09 XBig12= 3.25D+02 1.73D+01.
 AX will form    42 AO Fock derivatives at one time.
     42 vectors produced by pass  1 Test12= 4.11D-15 2.22D-09 XBig12= 2.46D+01 1.05D+00.
     42 vectors produced by pass  2 Test12= 4.11D-15 2.22D-09 XBig12= 2.36D-01 8.62D-02.
     42 vectors produced by pass  3 Test12= 4.11D-15 2.22D-09 XBig12= 2.61D-04 3.29D-03.
     42 vectors produced by pass  4 Test12= 4.11D-15 2.22D-09 XBig12= 1.49D-07 8.68D-05.
     21 vectors produced by pass  5 Test12= 4.11D-15 2.22D-09 XBig12= 9.35D-11 2.16D-06.
      3 vectors produced by pass  6 Test12= 4.11D-15 2.22D-09 XBig12= 4.01D-14 2.98D-08.
 Inverted reduced A of dimension   234 with in-core refinement.
 Isotropic polarizability for W=    0.000000       78.12 Bohr**3.
 End of Minotr Frequency-dependent properties file   721 does not exist.
 End of Minotr Frequency-dependent properties file   722 does not exist.

 **********************************************************************

            Population analysis using the SCF density.

 **********************************************************************

 Orbital symmetries:
       Occupied  (A) (A) (A) (A) (A) (A) (A) (A) (A) (A) (A) (A)
                 (A) (A) (A) (A) (A) (A) (A) (A) (A) (A)
       Virtual   (A) (A) (A) (A) (A) (A) (A) (A) (A) (A) (A) (A)
                 (A) (A) (A) (A) (A) (A) (A) (A) (A) (A) (A) (A)
                 (A) (A) (A) (A) (A) (A) (A) (A) (A) (A) (A) (A)
                 (A) (A) (A) (A) (A) (A) (A) (A) (A) (A) (A) (A)
                 (A) (A) (A) (A) (A) (A) (A) (A) (A) (A) (A) (A)
                 (A) (A) (A) (A) (A) (A) (A) (A) (A) (A) (A) (A)
                 (A) (A) (A) (A) (A) (A) (A) (A) (A) (A) (A) (A)
 The electronic state is 1-A.
 Alpha  occ. eigenvalues --  -10.19336 -10.19332 -10.19277 -10.19205 -10.18406
 Alpha  occ. eigenvalues --  -10.18406  -0.81677  -0.77585  -0.71720  -0.61903
 Alpha  occ. eigenvalues --   -0.55721  -0.55312  -0.48266  -0.45758  -0.42844
 Alpha  occ. eigenvalues --   -0.40308  -0.37956  -0.36117  -0.34447  -0.33754
 Alpha  occ. eigenvalues --   -0.28592  -0.20925
 Alpha virt. eigenvalues --   -0.04434   0.04759   0.10067   0.10230   0.12384
 Alpha virt. eigenvalues --    0.13065   0.14325   0.16379   0.18672   0.18735
 Alpha virt. eigenvalues --    0.21033   0.31114   0.33531   0.35104   0.37419
 Alpha virt. eigenvalues --    0.41084   0.47602   0.49947   0.52352   0.55261
 Alpha virt. eigenvalues --    0.59006   0.59876   0.60204   0.61551   0.61957
 Alpha virt. eigenvalues --    0.64736   0.67365   0.69022   0.69481   0.71182
 Alpha virt. eigenvalues --    0.82793   0.85087   0.86146   0.87106   0.88374
 Alpha virt. eigenvalues --    0.89468   0.92665   0.93991   0.97047   0.98988
 Alpha virt. eigenvalues --    1.05656   1.07061   1.10469   1.14561   1.27106
 Alpha virt. eigenvalues --    1.28167   1.32592   1.33745   1.35378   1.43525
 Alpha virt. eigenvalues --    1.46439   1.50752   1.60359   1.70070   1.75524
 Alpha virt. eigenvalues --    1.81676   1.83358   1.90134   1.97229   1.98049
 Alpha virt. eigenvalues --    1.98453   2.01372   2.11006   2.15478   2.18537
 Alpha virt. eigenvalues --    2.26234   2.28710   2.35459   2.40052   2.42173
 Alpha virt. eigenvalues --    2.48417   2.48890   2.62698   2.75136   2.86274
 Alpha virt. eigenvalues --    2.86839   3.04084   3.04892   4.08721   4.09946
 Alpha virt. eigenvalues --    4.14493   4.20205   4.35795   4.50414
          Condensed to atoms (all electrons):
              1          2          3          4          5          6
     1  C    5.079837   0.623831  -0.024384   0.002805  -0.000240   0.000003
     2  C    0.623831   4.755374   0.436251  -0.012377   0.003767  -0.000240
     3  C   -0.024384   0.436251   4.885981   0.592302  -0.012377   0.002805
     4  C    0.002805  -0.012377   0.592302   4.885981   0.436251  -0.024384
     5  C   -0.000240   0.003767  -0.012377   0.436251   4.755374   0.623831
     6  C    0.000003  -0.000240   0.002805  -0.024384   0.623831   5.079838
     7  H   -0.005673  -0.051574   0.362780  -0.054808  -0.007886   0.000356
     8  H    0.000356  -0.007886  -0.054808   0.362780  -0.051574  -0.005673
     9  H   -0.000001   0.000265  -0.006602  -0.053278   0.367432  -0.052635
    10  H    0.000000   0.000004   0.000315  -0.010753  -0.035242   0.367950
    11  H    0.000000   0.000002  -0.000173   0.003690  -0.019654   0.363390
    12  H    0.363390  -0.019654   0.003690  -0.000173   0.000002   0.000000
    13  H    0.367950  -0.035242  -0.010753   0.000315   0.000004   0.000000
    14  H   -0.052635   0.367432  -0.053278  -0.006602   0.000265  -0.000001
              7          8          9         10         11         12
     1  C   -0.005673   0.000356  -0.000001   0.000000   0.000000   0.363390
     2  C   -0.051574  -0.007886   0.000265   0.000004   0.000002  -0.019654
     3  C    0.362780  -0.054808  -0.006602   0.000315  -0.000173   0.003690
     4  C   -0.054808   0.362780  -0.053278  -0.010753   0.003690  -0.000173
     5  C   -0.007886  -0.051574   0.367432  -0.035242  -0.019654   0.000002
     6  C    0.000356  -0.005673  -0.052635   0.367950   0.363390   0.000000
     7  H    0.610240   0.006145   0.005359   0.000013  -0.000005  -0.000015
     8  H    0.006145   0.610240   0.005419   0.005474  -0.000015  -0.000005
     9  H    0.005359   0.005419   0.608429   0.005738  -0.006929   0.000000
    10  H    0.000013   0.005474   0.005738   0.566985  -0.041723   0.000000
    11  H   -0.000005  -0.000015  -0.006929  -0.041723   0.556680   0.000000
    12  H   -0.000015  -0.000005   0.000000   0.000000   0.000000   0.556679
    13  H    0.005474   0.000013   0.000001   0.000000   0.000000  -0.041723
    14  H    0.005419   0.005359   0.000009   0.000001   0.000000  -0.006929
             13         14
     1  C    0.367950  -0.052635
     2  C   -0.035242   0.367432
     3  C   -0.010753  -0.053278
     4  C    0.000315  -0.006602
     5  C    0.000004   0.000265
     6  C    0.000000  -0.000001
     7  H    0.005474   0.005419
     8  H    0.000013   0.005359
     9  H    0.000001   0.000009
    10  H    0.000000   0.000001
    11  H    0.000000   0.000000
    12  H   -0.041723  -0.006929
    13  H    0.566985   0.005738
    14  H    0.005738   0.608430
 Mulliken atomic charges:
              1
     1  C   -0.355241
     2  C   -0.059952
     3  C   -0.121750
     4  C   -0.121750
     5  C   -0.059953
     6  C   -0.355241
     7  H    0.124175
     8  H    0.124175
     9  H    0.126793
    10  H    0.141239
    11  H    0.144737
    12  H    0.144737
    13  H    0.141239
    14  H    0.126793
 Sum of Mulliken atomic charges =   0.00000
 Mulliken charges with hydrogens summed into heavy atoms:
              1
     1  C   -0.069265
     2  C    0.066840
     3  C    0.002424
     4  C    0.002425
     5  C    0.066840
     6  C   -0.069265
 Sum of Mulliken charges with hydrogens summed into heavy atoms =   0.00000
 APT atomic charges:
              1
     1  C   -0.137675
     2  C    0.077869
     3  C    0.010497
     4  C    0.010497
     5  C    0.077869
     6  C   -0.137675
     7  H    0.002199
     8  H    0.002200
     9  H    0.001340
    10  H    0.024776
    11  H    0.020993
    12  H    0.020994
    13  H    0.024776
    14  H    0.001339
 Sum of APT charges=   0.00000
 APT Atomic charges with hydrogens summed into heavy atoms:
              1
     1  C   -0.091905
     2  C    0.079208
     3  C    0.012696
     4  C    0.012696
     5  C    0.079209
     6  C   -0.091905
     7  H    0.000000
     8  H    0.000000
     9  H    0.000000
    10  H    0.000000
    11  H    0.000000
    12  H    0.000000
    13  H    0.000000
    14  H    0.000000
 Sum of APT charges=   0.00000
 Electronic spatial extent (au):  <R**2>=            918.4773
 Charge=              0.0000 electrons
 Dipole moment (field-independent basis, Debye):
    X=              0.0000    Y=              0.0000    Z=              0.0000  Tot=              0.0000
 Quadrupole moment (field-independent basis, Debye-Ang):
   XX=            -33.7392   YY=            -33.1461   ZZ=            -40.8286
   XY=              0.0322   XZ=              0.0000   YZ=              0.0000
 Traceless Quadrupole moment (field-independent basis, Debye-Ang):
   XX=              2.1654   YY=              2.7585   ZZ=             -4.9240
   XY=              0.0322   XZ=              0.0000   YZ=              0.0000
 Octapole moment (field-independent basis, Debye-Ang**2):
  XXX=              0.0000  YYY=              0.0000  ZZZ=              0.0000  XYY=              0.0000
  XXY=              0.0000  XXZ=              0.0007  XZZ=              0.0000  YZZ=              0.0000
  YYZ=             -0.0001  XYZ=              0.0001
 Hexadecapole moment (field-independent basis, Debye-Ang**3):
 XXXX=          -1036.1522 YYYY=            -97.9513 ZZZZ=            -42.4072 XXXY=              9.4982
 XXXZ=              0.0000 YYYX=             -1.8032 YYYZ=              0.0000 ZZZX=              0.0000
 ZZZY=              0.0000 XXYY=           -189.2647 XXZZ=           -217.2925 YYZZ=            -25.9838
 XXYZ=              0.0000 YYXZ=              0.0000 ZZXY=             -0.0657
 N-N= 1.936362050878D+02 E-N=-9.267343914541D+02  KE= 2.310398575376D+02
  Exact polarizability: 154.783 -12.061  57.214   0.000   0.000  22.373
 Approx polarizability: 257.023 -35.030  84.842   0.000   0.000  32.122
 Calling FoFJK, ICntrl=    100127 FMM=F ISym2X=0 I1Cent= 0 IOpClX= 0 NMat=1 NMatS=1 NMatT=0.
 Full mass-weighted force constant matrix:
 Low frequencies ---   -0.0006    0.0003    0.0004    6.2018    7.0972   33.5041
 Low frequencies ---  102.8043  147.8937  229.8709
 Diagonal vibrational polarizability:
        3.3628383       0.3711796       5.2944192
 Harmonic frequencies (cm**-1), IR intensities (KM/Mole), Raman scattering
 activities (A**4/AMU), depolarization ratios for plane and unpolarized
 incident light, reduced masses (AMU), force constants (mDyne/A),
 and normal coordinates:
                     1                      2                      3
                     A                      A                      A
 Frequencies --   102.8043               147.8937               229.8692
 Red. masses --     3.3631                 2.9611                 2.8411
 Frc consts  --     0.0209                 0.0382                 0.0885
 IR Inten    --     0.2570                 2.0075                 0.0000
  Atom  AN      X      Y      Z        X      Y      Z        X      Y      Z
     1   6     0.00   0.00   0.25     0.05   0.20   0.00     0.00   0.00  -0.11
     2   6     0.00   0.00  -0.09    -0.07  -0.04   0.00     0.00   0.00   0.16
     3   6     0.00   0.00  -0.20     0.02  -0.20   0.00     0.00   0.00   0.22
     4   6     0.00   0.00  -0.20     0.02  -0.20   0.00     0.00   0.00  -0.22
     5   6     0.00   0.00  -0.09    -0.07  -0.04   0.00     0.00   0.00  -0.16
     6   6     0.00   0.00   0.25     0.05   0.20   0.00     0.00   0.00   0.11
     7   1     0.00   0.00  -0.18     0.09  -0.19   0.00     0.00   0.00   0.52
     8   1     0.00   0.00  -0.18     0.09  -0.19   0.00     0.00   0.00  -0.52
     9   1     0.00   0.00  -0.22    -0.26  -0.05   0.00     0.00   0.00  -0.20
    10   1     0.00   0.00   0.42     0.28   0.23   0.00     0.00   0.00   0.22
    11   1     0.00   0.00   0.37    -0.08   0.40   0.00     0.00   0.00   0.25
    12   1     0.00   0.00   0.37    -0.08   0.40   0.00     0.00   0.00  -0.25
    13   1     0.00   0.00   0.42     0.28   0.23   0.00     0.00   0.00  -0.22
    14   1     0.00   0.00  -0.22    -0.26  -0.05   0.00     0.00   0.00   0.20
                     4                      5                      6
                     A                      A                      A
 Frequencies --   257.9129               350.1354               445.4500
 Red. masses --     1.6285                 2.4944                 4.2831
 Frc consts  --     0.0638                 0.1802                 0.5007
 IR Inten    --     1.2432                 0.0000                 0.0000
  Atom  AN      X      Y      Z        X      Y      Z        X      Y      Z
     1   6     0.00   0.00   0.01    -0.14  -0.08   0.00     0.24  -0.04   0.00
     2   6     0.00   0.00  -0.12    -0.01   0.17   0.00     0.25   0.06   0.00
     3   6     0.00   0.00   0.12     0.04   0.10   0.00     0.09   0.13   0.00
     4   6     0.00   0.00   0.12    -0.04  -0.10   0.00    -0.09  -0.13   0.00
     5   6     0.00   0.00  -0.12     0.01  -0.17   0.00    -0.25  -0.06   0.00
     6   6     0.00   0.00   0.01     0.14   0.08   0.00    -0.24   0.04   0.00
     7   1     0.00   0.00   0.16     0.20   0.11   0.00     0.23   0.13   0.00
     8   1     0.00   0.00   0.16    -0.20  -0.11   0.00    -0.23  -0.13   0.00
     9   1     0.00   0.00  -0.48    -0.08  -0.18   0.00    -0.40  -0.07   0.00
    10   1     0.00   0.00   0.39     0.46   0.11   0.00    -0.19   0.04   0.00
    11   1     0.00   0.00  -0.26    -0.03   0.35   0.00    -0.28   0.09   0.00
    12   1     0.00   0.00  -0.26     0.03  -0.35   0.00     0.28  -0.09   0.00
    13   1     0.00   0.00   0.39    -0.46  -0.11   0.00     0.19  -0.04   0.00
    14   1     0.00   0.00  -0.48     0.08   0.18   0.00     0.40   0.07   0.00
                     7                      8                      9
                     A                      A                      A
 Frequencies --   543.4677               620.0156               711.5405
 Red. masses --     2.5026                 1.1690                 1.6208
 Frc consts  --     0.4355                 0.2648                 0.4835
 IR Inten    --     5.6743                 0.0000                 8.0263
  Atom  AN      X      Y      Z        X      Y      Z        X      Y      Z
     1   6    -0.11   0.00   0.00     0.00   0.00  -0.01     0.00   0.00  -0.01
     2   6    -0.02   0.14   0.00     0.00   0.00   0.08     0.00   0.00   0.14
     3   6     0.14  -0.12   0.00     0.00   0.00   0.00     0.00   0.00  -0.09
     4   6     0.14  -0.12   0.00     0.00   0.00   0.00     0.00   0.00  -0.09
     5   6    -0.02   0.14   0.00     0.00   0.00  -0.08     0.00   0.00   0.14
     6   6    -0.11   0.00   0.00     0.00   0.00   0.01     0.00   0.00  -0.01
     7   1     0.35  -0.10   0.00     0.00   0.00  -0.33     0.00   0.00  -0.14
     8   1     0.35  -0.10   0.00     0.00   0.00   0.33     0.00   0.00  -0.14
     9   1    -0.10   0.14   0.00     0.00   0.00   0.20     0.00   0.00  -0.14
    10   1    -0.43  -0.04   0.00     0.00   0.00  -0.34     0.00   0.00   0.34
    11   1     0.05  -0.27   0.00     0.00   0.00   0.48     0.00   0.00  -0.57
    12   1     0.05  -0.27   0.00     0.00   0.00  -0.48     0.00   0.00  -0.57
    13   1    -0.43  -0.04   0.00     0.00   0.00   0.34     0.00   0.00   0.34
    14   1    -0.10   0.14   0.00     0.00   0.00  -0.20     0.00   0.00  -0.14
                    10                     11                     12
                     A                      A                      A
 Frequencies --   899.7897               920.2693               924.6113
 Red. masses --     1.7535                 1.3475                 1.5265
 Frc consts  --     0.8364                 0.6724                 0.7689
 IR Inten    --     0.0000                76.1055                 0.0000
  Atom  AN      X      Y      Z        X      Y      Z        X      Y      Z
     1   6     0.00   0.00   0.05     0.00   0.00   0.12     0.00   0.00  -0.12
     2   6     0.00   0.00   0.05     0.00   0.00  -0.04     0.00   0.00   0.07
     3   6     0.00   0.00  -0.17     0.00   0.00   0.00     0.00   0.00  -0.07
     4   6     0.00   0.00   0.17     0.00   0.00   0.00     0.00   0.00   0.07
     5   6     0.00   0.00  -0.05     0.00   0.00  -0.04     0.00   0.00  -0.07
     6   6     0.00   0.00  -0.05     0.00   0.00   0.12     0.00   0.00   0.12
     7   1     0.00   0.00   0.55     0.00   0.00   0.07     0.00   0.00   0.22
     8   1     0.00   0.00  -0.55     0.00   0.00   0.07     0.00   0.00  -0.22
     9   1     0.00   0.00   0.04     0.00   0.00  -0.02     0.00   0.00   0.03
    10   1     0.00   0.00   0.17     0.00   0.00  -0.51     0.00   0.00  -0.51
    11   1     0.00   0.00   0.37     0.00   0.00  -0.46     0.00   0.00  -0.41
    12   1     0.00   0.00  -0.37     0.00   0.00  -0.46     0.00   0.00   0.41
    13   1     0.00   0.00  -0.17     0.00   0.00  -0.51     0.00   0.00   0.51
    14   1     0.00   0.00  -0.04     0.00   0.00  -0.02     0.00   0.00  -0.03
                    13                     14                     15
                     A                      A                      A
 Frequencies --   954.1296               976.7560               987.1986
 Red. masses --     1.4435                 1.1673                 1.5637
 Frc consts  --     0.7743                 0.6561                 0.8979
 IR Inten    --     0.0000                 3.6071                 2.8121
  Atom  AN      X      Y      Z        X      Y      Z        X      Y      Z
     1   6     0.07   0.06   0.00     0.00   0.00  -0.02     0.10   0.06   0.00
     2   6     0.03   0.03   0.00     0.00   0.00   0.06     0.03   0.02   0.00
     3   6    -0.03  -0.10   0.00     0.00   0.00  -0.06    -0.10  -0.04   0.00
     4   6     0.03   0.10   0.00     0.00   0.00  -0.06    -0.10  -0.04   0.00
     5   6    -0.03  -0.03   0.00     0.00   0.00   0.06     0.03   0.02   0.00
     6   6    -0.07  -0.06   0.00     0.00   0.00  -0.02     0.10   0.06   0.00
     7   1    -0.18  -0.11   0.00     0.00   0.00   0.57    -0.25  -0.06   0.00
     8   1     0.18   0.11   0.00     0.00   0.00   0.57    -0.25  -0.06   0.00
     9   1     0.22  -0.01   0.00     0.00   0.00  -0.36    -0.16   0.01   0.00
    10   1     0.39  -0.01   0.00     0.00   0.00  -0.14    -0.35   0.01   0.00
    11   1    -0.33   0.35   0.00     0.00   0.00   0.15     0.36  -0.36   0.00
    12   1     0.33  -0.35   0.00     0.00   0.00   0.15     0.36  -0.36   0.00
    13   1    -0.39   0.01   0.00     0.00   0.00  -0.14    -0.35   0.01   0.00
    14   1    -0.22   0.01   0.00     0.00   0.00  -0.36    -0.16   0.01   0.00
                    16                     17                     18
                     A                      A                      A
 Frequencies --  1032.1398              1065.9753              1170.3502
 Red. masses --     1.1079                 1.0907                 2.2442
 Frc consts  --     0.6954                 0.7302                 1.8111
 IR Inten    --     0.0000                50.2635                 5.7241
  Atom  AN      X      Y      Z        X      Y      Z        X      Y      Z
     1   6     0.00   0.00  -0.01     0.00   0.00   0.00    -0.02   0.05   0.00
     2   6     0.00   0.00   0.07     0.00   0.00   0.05    -0.05  -0.14   0.00
     3   6     0.00   0.00   0.00     0.00   0.00   0.03     0.15   0.10   0.00
     4   6     0.00   0.00   0.00     0.00   0.00   0.03     0.15   0.10   0.00
     5   6     0.00   0.00  -0.07     0.00   0.00   0.05    -0.05  -0.14   0.00
     6   6     0.00   0.00   0.01     0.00   0.00   0.00    -0.02   0.05   0.00
     7   1     0.00   0.00  -0.06     0.00   0.00  -0.43    -0.19   0.09   0.00
     8   1     0.00   0.00   0.06     0.00   0.00  -0.43    -0.19   0.09   0.00
     9   1     0.00   0.00   0.59     0.00   0.00  -0.48    -0.53  -0.17   0.00
    10   1     0.00   0.00   0.30     0.00   0.00  -0.24    -0.28   0.02   0.00
    11   1     0.00   0.00  -0.22     0.00   0.00   0.16     0.04  -0.07   0.00
    12   1     0.00   0.00   0.22     0.00   0.00   0.16     0.04  -0.07   0.00
    13   1     0.00   0.00  -0.30     0.00   0.00  -0.24    -0.28   0.02   0.00
    14   1     0.00   0.00  -0.59     0.00   0.00  -0.48    -0.53  -0.17   0.00
                    19                     20                     21
                     A                      A                      A
 Frequencies --  1232.3674              1296.9422              1328.9067
 Red. masses --     1.9011                 1.3039                 1.5516
 Frc consts  --     1.7011                 1.2923                 1.6144
 IR Inten    --     0.0000                 2.7265                 0.0000
  Atom  AN      X      Y      Z        X      Y      Z        X      Y      Z
     1   6     0.04   0.03   0.00     0.03   0.04   0.00     0.02  -0.08   0.00
     2   6    -0.07  -0.13   0.00    -0.04  -0.07   0.00     0.00   0.09   0.00
     3   6     0.07   0.11   0.00    -0.05   0.04   0.00     0.02  -0.09   0.00
     4   6    -0.07  -0.11   0.00    -0.05   0.04   0.00    -0.02   0.09   0.00
     5   6     0.07   0.13   0.00    -0.04  -0.07   0.00     0.00  -0.09   0.00
     6   6    -0.04  -0.03   0.00     0.03   0.04   0.00    -0.02   0.08   0.00
     7   1     0.40   0.13   0.00     0.64   0.08   0.00     0.34  -0.08   0.00
     8   1    -0.40  -0.13   0.00     0.64   0.08   0.00    -0.34   0.08   0.00
     9   1     0.44   0.15   0.00     0.13  -0.06   0.00     0.47  -0.07   0.00
    10   1     0.17   0.00   0.00    -0.12   0.02   0.00    -0.36   0.05   0.00
    11   1    -0.13   0.13   0.00     0.13  -0.13   0.00     0.01   0.01   0.00
    12   1     0.13  -0.13   0.00     0.13  -0.13   0.00    -0.01  -0.01   0.00
    13   1    -0.17   0.00   0.00    -0.12   0.02   0.00     0.36  -0.05   0.00
    14   1    -0.44  -0.15   0.00     0.13  -0.06   0.00    -0.47   0.07   0.00
                    22                     23                     24
                     A                      A                      A
 Frequencies --  1340.5029              1344.8198              1455.0027
 Red. masses --     1.2912                 1.3142                 1.2906
 Frc consts  --     1.3670                 1.4003                 1.6098
 IR Inten    --     3.4950                 0.0000                 0.0000
  Atom  AN      X      Y      Z        X      Y      Z        X      Y      Z
     1   6    -0.05   0.07   0.00    -0.02   0.04   0.00    -0.01  -0.02   0.00
     2   6     0.03  -0.06   0.00     0.00  -0.03   0.00     0.10  -0.01   0.00
     3   6     0.03  -0.02   0.00     0.01  -0.10   0.00     0.04  -0.03   0.00
     4   6     0.03  -0.02   0.00    -0.01   0.10   0.00    -0.04   0.03   0.00
     5   6     0.03  -0.06   0.00     0.00   0.03   0.00    -0.10   0.01   0.00
     6   6    -0.05   0.07   0.00     0.02  -0.04   0.00     0.01   0.02   0.00
     7   1    -0.21  -0.03   0.00     0.55  -0.08   0.00     0.02  -0.04   0.00
     8   1    -0.21  -0.03   0.00    -0.55   0.08   0.00    -0.02   0.04   0.00
     9   1     0.56  -0.04   0.00    -0.39   0.02   0.00     0.21   0.03   0.00
    10   1    -0.34   0.05   0.00     0.13  -0.03   0.00     0.42   0.04   0.00
    11   1    -0.07   0.08   0.00    -0.01   0.02   0.00     0.30  -0.42   0.00
    12   1    -0.07   0.08   0.00     0.01  -0.02   0.00    -0.30   0.42   0.00
    13   1    -0.34   0.05   0.00    -0.13   0.03   0.00    -0.42  -0.04   0.00
    14   1     0.56  -0.04   0.00     0.39  -0.02   0.00    -0.21  -0.03   0.00
                    25                     26                     27
                     A                      A                      A
 Frequencies --  1487.9879              1657.5463              1709.0116
 Red. masses --     1.2427                 3.7489                 4.1550
 Frc consts  --     1.6211                 6.0686                 7.1501
 IR Inten    --     2.0876                 0.0000                16.4425
  Atom  AN      X      Y      Z        X      Y      Z        X      Y      Z
     1   6     0.03  -0.03   0.00    -0.19   0.08   0.00    -0.22   0.09   0.00
     2   6     0.08   0.00   0.00     0.15  -0.06   0.00     0.28  -0.07   0.00
     3   6    -0.05   0.00   0.00     0.23  -0.05   0.00    -0.07   0.00   0.00
     4   6    -0.05   0.00   0.00    -0.23   0.05   0.00    -0.07   0.00   0.00
     5   6     0.08   0.00   0.00    -0.15   0.06   0.00     0.28  -0.07   0.00
     6   6     0.03  -0.03   0.00     0.19  -0.08   0.00    -0.22   0.09   0.00
     7   1     0.15   0.00   0.00    -0.24  -0.10   0.00     0.15   0.00   0.00
     8   1     0.15   0.00   0.00     0.24   0.10   0.00     0.15   0.00   0.00
     9   1    -0.22  -0.01   0.00     0.09   0.10   0.00    -0.29  -0.12   0.00
    10   1    -0.41  -0.06   0.00    -0.37  -0.16   0.00     0.33   0.17   0.00
    11   1    -0.26   0.42   0.00    -0.07   0.36   0.00     0.01  -0.31   0.00
    12   1    -0.26   0.42   0.00     0.07  -0.36   0.00     0.01  -0.31   0.00
    13   1    -0.41  -0.06   0.00     0.37   0.16   0.00     0.33   0.17   0.00
    14   1    -0.22  -0.01   0.00    -0.09  -0.10   0.00    -0.29  -0.12   0.00
                    28                     29                     30
                     A                      A                      A
 Frequencies --  1712.1816              3143.9497              3144.5229
 Red. masses --     4.6181                 1.0848                 1.0898
 Frc consts  --     7.9766                 6.3174                 6.3493
 IR Inten    --     0.0000                 0.1097                 0.0000
  Atom  AN      X      Y      Z        X      Y      Z        X      Y      Z
     1   6     0.13  -0.06   0.00    -0.01   0.00   0.00    -0.01   0.00   0.00
     2   6    -0.21   0.05   0.00     0.00   0.04   0.00     0.00   0.02   0.00
     3   6     0.30  -0.07   0.00     0.00  -0.04   0.00     0.01  -0.06   0.00
     4   6    -0.30   0.07   0.00     0.00  -0.04   0.00    -0.01   0.06   0.00
     5   6     0.21  -0.05   0.00     0.00   0.04   0.00     0.00  -0.02   0.00
     6   6    -0.13   0.06   0.00    -0.01   0.00   0.00     0.01   0.00   0.00
     7   1    -0.38  -0.12   0.00    -0.03   0.51   0.00    -0.04   0.67   0.00
     8   1     0.38   0.12   0.00    -0.02   0.50   0.00     0.04  -0.67   0.00
     9   1    -0.29  -0.09   0.00     0.03  -0.47   0.00    -0.01   0.20   0.00
    10   1     0.19   0.10   0.00     0.00  -0.07   0.00     0.00   0.07   0.00
    11   1     0.00  -0.18   0.00     0.09   0.06   0.00    -0.06  -0.04   0.00
    12   1     0.00   0.18   0.00     0.09   0.06   0.00     0.06   0.04   0.00
    13   1    -0.19  -0.10   0.00     0.00  -0.07   0.00     0.00  -0.07   0.00
    14   1     0.29   0.09   0.00     0.03  -0.47   0.00     0.01  -0.19   0.00
                    31                     32                     33
                     A                      A                      A
 Frequencies --  3152.4677              3157.9728              3165.5339
 Red. masses --     1.0848                 1.0844                 1.0654
 Frc consts  --     6.3519                 6.3719                 6.2900
 IR Inten    --     0.0000                63.3029                12.0445
  Atom  AN      X      Y      Z        X      Y      Z        X      Y      Z
     1   6    -0.01   0.00   0.00    -0.01   0.00   0.00     0.04  -0.03   0.00
     2   6     0.00   0.06   0.00     0.00   0.04   0.00    -0.01   0.02   0.00
     3   6     0.00   0.02   0.00     0.00   0.04   0.00     0.00   0.00   0.00
     4   6     0.00  -0.02   0.00     0.00   0.04   0.00     0.00   0.00   0.00
     5   6     0.00  -0.06   0.00     0.00   0.04   0.00    -0.01   0.02   0.00
     6   6     0.01   0.00   0.00    -0.01   0.00   0.00     0.04  -0.03   0.00
     7   1     0.01  -0.21   0.00     0.03  -0.49   0.00     0.00   0.00   0.00
     8   1    -0.01   0.21   0.00     0.03  -0.49   0.00     0.00   0.00   0.00
     9   1    -0.04   0.64   0.00     0.02  -0.49   0.00     0.01  -0.17   0.00
    10   1    -0.01   0.10   0.00     0.01  -0.07   0.00    -0.05   0.56   0.00
    11   1    -0.13  -0.09   0.00     0.10   0.07   0.00    -0.33  -0.22   0.00
    12   1     0.13   0.09   0.00     0.10   0.07   0.00    -0.33  -0.22   0.00
    13   1     0.01  -0.10   0.00     0.01  -0.07   0.00    -0.05   0.56   0.00
    14   1     0.04  -0.64   0.00     0.02  -0.49   0.00     0.01  -0.16   0.00
                    34                     35                     36
                     A                      A                      A
 Frequencies --  3165.7515              3248.9822              3249.0010
 Red. masses --     1.0660                 1.1156                 1.1157
 Frc consts  --     6.2946                 6.9386                 6.9387
 IR Inten    --     0.0002                 0.3000                31.3532
  Atom  AN      X      Y      Z        X      Y      Z        X      Y      Z
     1   6    -0.04   0.03   0.00     0.03   0.05   0.00    -0.04  -0.06   0.00
     2   6     0.01  -0.02   0.00     0.00   0.01   0.00     0.00  -0.01   0.00
     3   6     0.00   0.00   0.00     0.00   0.00   0.00     0.00   0.00   0.00
     4   6     0.00   0.00   0.00     0.00   0.00   0.00     0.00   0.00   0.00
     5   6    -0.01   0.02   0.00     0.00  -0.01   0.00     0.00  -0.01   0.00
     6   6     0.04  -0.03   0.00    -0.04  -0.06   0.00    -0.03  -0.05   0.00
     7   1     0.00  -0.04   0.00     0.00  -0.01   0.00     0.00   0.01   0.00
     8   1     0.00   0.04   0.00     0.00   0.01   0.00     0.00   0.01   0.00
     9   1     0.01  -0.18   0.00    -0.01   0.08   0.00     0.00   0.07   0.00
    10   1    -0.05   0.55   0.00    -0.05   0.45   0.00    -0.04   0.37   0.00
    11   1    -0.32  -0.21   0.00     0.52   0.33   0.00     0.43   0.27   0.00
    12   1     0.32   0.22   0.00    -0.43  -0.27   0.00     0.52   0.33   0.00
    13   1     0.05  -0.56   0.00     0.04  -0.37   0.00    -0.05   0.45   0.00
    14   1    -0.01   0.18   0.00     0.00  -0.06   0.00    -0.01   0.08   0.00

 -------------------
 - Thermochemistry -
 -------------------
 Temperature   298.150 Kelvin.  Pressure   1.00000 Atm.
 Atom     1 has atomic number  6 and mass  12.00000
 Atom     2 has atomic number  6 and mass  12.00000
 Atom     3 has atomic number  6 and mass  12.00000
 Atom     4 has atomic number  6 and mass  12.00000
 Atom     5 has atomic number  6 and mass  12.00000
 Atom     6 has atomic number  6 and mass  12.00000
 Atom     7 has atomic number  1 and mass   1.00783
 Atom     8 has atomic number  1 and mass   1.00783
 Atom     9 has atomic number  1 and mass   1.00783
 Atom    10 has atomic number  1 and mass   1.00783
 Atom    11 has atomic number  1 and mass   1.00783
 Atom    12 has atomic number  1 and mass   1.00783
 Atom    13 has atomic number  1 and mass   1.00783
 Atom    14 has atomic number  1 and mass   1.00783
 Molecular mass:    80.06260 amu.
 Principal axes and moments of inertia in atomic units:
                           1         2         3
     Eigenvalues --    67.719261356.044801423.76406
           X            1.00000  -0.00290   0.00000
           Y            0.00290   1.00000   0.00000
           Z            0.00000   0.00000   1.00000
 This molecule is an asymmetric top.
 Rotational symmetry number  1.
 Rotational temperatures (Kelvin)      1.27901     0.06387     0.06083
 Rotational constants (GHZ):          26.65034     1.33089     1.26758
 Zero-point vibrational energy     313025.4 (Joules/Mol)
                                   74.81487 (Kcal/Mol)
 Warning -- explicit consideration of   8 degrees of freedom as
           vibrations may cause significant error
 Vibrational temperatures:    147.91   212.79   330.73   371.08   503.77
          (Kelvin)            640.90   781.93   892.06  1023.75  1294.60
                             1324.06  1330.31  1372.78  1405.33  1420.36
                             1485.02  1533.70  1683.87  1773.10  1866.01
                             1912.00  1928.68  1934.89  2093.42  2140.88
                             2384.84  2458.88  2463.44  4523.44  4524.26
                             4535.69  4543.61  4554.49  4554.80  4674.55
                             4674.58
 
 Zero-point correction=                           0.119225 (Hartree/Particle)
 Thermal correction to Energy=                    0.125933
 Thermal correction to Enthalpy=                  0.126878
 Thermal correction to Gibbs Free Energy=         0.089147
 Sum of electronic and zero-point Energies=           -233.279341
 Sum of electronic and thermal Energies=              -233.272633
 Sum of electronic and thermal Enthalpies=            -233.271689
 Sum of electronic and thermal Free Energies=         -233.309419
 
                     E (Thermal)             CV                S
                      KCal/Mol        Cal/Mol-Kelvin    Cal/Mol-Kelvin
 Total                   79.024             23.805             79.410
 Electronic               0.000              0.000              0.000
 Translational            0.889              2.981             39.055
 Rotational               0.889              2.981             26.372
 Vibrational             77.247             17.843             13.983
 Vibration     1          0.605              1.947              3.400
 Vibration     2          0.617              1.905              2.699
 Vibration     3          0.652              1.795              1.880
 Vibration     4          0.667              1.749              1.676
 Vibration     5          0.727              1.575              1.166
 Vibration     6          0.805              1.371              0.810
 Vibration     7          0.899              1.154              0.558
 Vibration     8          0.980              0.990              0.416
                       Q            Log10(Q)             Ln(Q)
 Total Bot       0.989077D-41        -41.004770        -94.416972
 Total V=0       0.683663D+14         13.834842         31.855901
 Vib (Bot)       0.271376D-53        -53.566428       -123.341259
 Vib (Bot)    1  0.199520D+01          0.299986          0.690743
 Vib (Bot)    2  0.137187D+01          0.137314          0.316177
 Vib (Bot)    3  0.856877D+00         -0.067081         -0.154461
 Vib (Bot)    4  0.753861D+00         -0.122709         -0.282548
 Vib (Bot)    5  0.526892D+00         -0.278279         -0.640761
 Vib (Bot)    6  0.386393D+00         -0.412970         -0.950899
 Vib (Bot)    7  0.290569D+00         -0.536751         -1.235914
 Vib (Bot)    8  0.235862D+00         -0.627341         -1.444507
 Vib (V=0)       0.187579D+02          1.273184          2.931614
 Vib (V=0)    1  0.255689D+01          0.407713          0.938794
 Vib (V=0)    2  0.196015D+01          0.292289          0.673021
 Vib (V=0)    3  0.149209D+01          0.173794          0.400176
 Vib (V=0)    4  0.140460D+01          0.147554          0.339754
 Vib (V=0)    5  0.122637D+01          0.088622          0.204059
 Vib (V=0)    6  0.113190D+01          0.053809          0.123899
 Vib (V=0)    7  0.107830D+01          0.032739          0.075385
 Vib (V=0)    8  0.105284D+01          0.022362          0.051490
 Electronic      0.100000D+01          0.000000          0.000000
 Translational   0.281579D+08          7.449600         17.153337
 Rotational      0.129437D+06          5.112059         11.770950
 ***** Axes restored to original set *****
 -------------------------------------------------------------------
 Center     Atomic                   Forces (Hartrees/Bohr)
 Number     Number              X              Y              Z
 -------------------------------------------------------------------
      1        6          -0.000083344   -0.000016539   -0.000000456
      2        6          -0.000104700    0.000081002   -0.000000697
      3        6           0.000154336   -0.000183965   -0.000000077
      4        6          -0.000154469    0.000183108   -0.000000077
      5        6           0.000105015   -0.000080671   -0.000000697
      6        6           0.000082966    0.000016217   -0.000000456
      7        1          -0.000034583    0.000034848    0.000000661
      8        1           0.000034512   -0.000034208    0.000000661
      9        1          -0.000043711    0.000023513    0.000000365
     10        1          -0.000057957   -0.000000174    0.000000350
     11        1          -0.000021135   -0.000004569   -0.000000145
     12        1           0.000021404    0.000004798   -0.000000145
     13        1           0.000058026    0.000000090    0.000000350
     14        1           0.000043641   -0.000023450    0.000000365
 -------------------------------------------------------------------
 Cartesian Forces:  Max     0.000183965 RMS     0.000065800

 GradGradGradGradGradGradGradGradGradGradGradGradGradGradGradGradGradGrad
 Berny optimization.
 Search for a local minimum.
 Step number   1 out of a maximum of    2
 All quantities printed in internal units (Hartrees-Bohrs-Radians)
 Second derivative matrix not updated -- analytic derivatives used.
     Eigenvalues ---    0.00131   0.00246   0.00432   0.00528   0.01164
     Eigenvalues ---    0.02126   0.02600   0.02603   0.02958   0.05659
     Eigenvalues ---    0.06074   0.06541   0.06634   0.07182   0.09047
     Eigenvalues ---    0.10618   0.12214   0.12799   0.13991   0.18028
     Eigenvalues ---    0.18310   0.21146   0.22832   0.24661   0.30686
     Eigenvalues ---    0.47801   0.58811   0.62648   0.64651   0.87714
     Eigenvalues ---    0.88400   0.99379   1.04247   1.33853   1.40563
     Eigenvalues ---    1.42448
 Angle between quadratic step and forces=  74.17 degrees.
 Linear search not attempted -- first point.
 TrRot=  0.000000  0.000000  0.000004 -0.000010  0.000000 -0.000010
 Variable       Old X    -DE/DX   Delta X   Delta X   Delta X     New X
                                 (Linear)    (Quad)   (Total)
    X1        5.81301  -0.00008   0.00000  -0.00003  -0.00004   5.81297
    Y1       -0.31663  -0.00002   0.00000   0.00000  -0.00012  -0.31674
    Z1        0.00005   0.00000   0.00000  -0.00005  -0.00004   0.00001
    X2        3.53024  -0.00010   0.00000  -0.00033  -0.00031   3.52993
    Y2        0.79266   0.00008   0.00000  -0.00056  -0.00063   0.79203
    Z2       -0.00001   0.00000   0.00000   0.00001   0.00002   0.00001
    X3        1.14775   0.00015   0.00000  -0.00014  -0.00015   1.14760
    Y3       -0.56116  -0.00018   0.00000  -0.00059  -0.00061  -0.56178
    Z3       -0.00005   0.00000   0.00000   0.00006   0.00006   0.00001
    X4       -1.14775  -0.00015   0.00000   0.00014   0.00015  -1.14760
    Y4        0.56117   0.00018   0.00000   0.00059   0.00061   0.56178
    Z4       -0.00005   0.00000   0.00000   0.00006   0.00006   0.00001
    X5       -3.53024   0.00011   0.00000   0.00033   0.00031  -3.52993
    Y5       -0.79266  -0.00008   0.00000   0.00056   0.00063  -0.79203
    Z5       -0.00001   0.00000   0.00000   0.00001   0.00002   0.00001
    X6       -5.81301   0.00008   0.00000   0.00003   0.00004  -5.81297
    Y6        0.31663   0.00002   0.00000   0.00000   0.00012   0.31674
    Z6        0.00005   0.00000   0.00000  -0.00005  -0.00004   0.00001
    X7        1.25357  -0.00003   0.00000  -0.00121  -0.00127   1.25231
    Y7       -2.62024   0.00003   0.00000  -0.00050  -0.00053  -2.62077
    Z7       -0.00007   0.00000   0.00000   0.00007   0.00008   0.00001
    X8       -1.25357   0.00003   0.00000   0.00121   0.00127  -1.25231
    Y8        2.62024  -0.00003   0.00000   0.00050   0.00053   2.62077
    Z8       -0.00007   0.00000   0.00000   0.00007   0.00008   0.00001
    X9       -3.41192  -0.00004   0.00000  -0.00013  -0.00018  -3.41210
    Y9       -2.85013   0.00002   0.00000   0.00062   0.00069  -2.84944
    Z9       -0.00002   0.00000   0.00000   0.00002   0.00003   0.00001
   X10       -6.01372  -0.00006   0.00000  -0.00183  -0.00178  -6.01549
   Y10        2.36237   0.00000   0.00000  -0.00017  -0.00005   2.36232
   Z10        0.00005   0.00000   0.00000  -0.00004  -0.00004   0.00001
   X11       -7.54687  -0.00002   0.00000   0.00049   0.00047  -7.54640
   Y11       -0.77979   0.00000   0.00000  -0.00088  -0.00072  -0.78051
   Z11        0.00010   0.00000   0.00000  -0.00010  -0.00009   0.00001
   X12        7.54687   0.00002   0.00000  -0.00049  -0.00047   7.54640
   Y12        0.77978   0.00000   0.00000   0.00088   0.00073   0.78051
   Z12        0.00010   0.00000   0.00000  -0.00010  -0.00009   0.00001
   X13        6.01371   0.00006   0.00000   0.00183   0.00178   6.01549
   Y13       -2.36237   0.00000   0.00000   0.00017   0.00005  -2.36232
   Z13        0.00005   0.00000   0.00000  -0.00004  -0.00004   0.00001
   X14        3.41192   0.00004   0.00000   0.00012   0.00018   3.41210
   Y14        2.85013  -0.00002   0.00000  -0.00062  -0.00069   2.84944
   Z14       -0.00002   0.00000   0.00000   0.00002   0.00003   0.00001
         Item               Value     Threshold  Converged?
 Maximum Force            0.000184     0.000450     YES
 RMS     Force            0.000066     0.000300     YES
 Maximum Displacement     0.001781     0.001800     YES
 RMS     Displacement     0.000587     0.001200     YES
 Predicted change in Energy=-2.214331D-07
 Optimization completed.
    -- Stationary point found.
 GradGradGradGradGradGradGradGradGradGradGradGradGradGradGradGradGradGrad

 1\1\GINC-CLODOMIRA\Freq\RB3LYP\6-31G(d)\C6H8\DIEGOA\03-Oct-2019\0\\# B
 3LYP/6-31G(d) Freq=savenormalmodes\\Title\\0,1\C,3.076112,-0.167551,0.
 000027\C,1.868124,0.419457,-0.000005\C,0.607363,-0.296955,-0.000028\C,
 -0.607363,0.296956,-0.000028\C,-1.868124,-0.419457,-0.000005\C,-3.0761
 12,0.167551,0.000027\H,0.663363,-1.386571,-0.000036\H,-0.663363,1.3865
 71,-0.000036\H,-1.80551,-1.508224,-0.00001\H,-3.182321,1.250111,0.0000
 25\H,-3.993633,-0.412645,0.000053\H,3.993633,0.412644,0.000053\H,3.182
 32,-1.250111,0.000025\H,1.805511,1.508224,-0.00001\\Version=EM64L-G09R
 evA.01\State=1-A\HF=-233.3985664\RMSD=2.345e-09\RMSF=6.580e-05\ZeroPoi
 nt=0.1192251\Thermal=0.1259335\Dipole=0.,0.0000003,0.000002\DipoleDeri
 v=-0.2254468,0.0565345,0.0000084,-0.0590561,0.1250136,0.0000032,-0.000
 0012,0.0000031,-0.3125911,0.2084018,-0.0177238,0.000005,0.226257,0.101
 0653,-0.0000025,-0.0000041,0.0000003,-0.07586,0.0197227,-0.0076804,0.0
 000035,-0.0444254,0.1200988,0.0000074,0.0000244,-0.000002,-0.1083306,0
 .0197227,-0.0076804,-0.0000035,-0.0444249,0.1200976,-0.0000074,-0.0000
 244,0.000002,-0.1083306,0.2084019,-0.0177239,-0.000005,0.2262569,0.101
 0653,0.0000025,0.0000041,-0.0000003,-0.07586,-0.2254461,0.0565347,-0.0
 000084,-0.0590558,0.1250135,-0.0000032,0.0000012,-0.0000031,-0.3125911
 ,0.0147648,0.0014698,-0.000001,-0.0287667,-0.1209638,-0.0000023,-0.000
 0036,0.0000004,0.1127973,0.0147648,0.0014698,0.000001,-0.0287667,-0.12
 09632,0.0000023,0.0000036,-0.0000004,0.1127975,0.0146115,0.0376848,0.0
 00002,-0.0421877,-0.1192768,-0.0000008,0.000001,-0.0000006,0.1086839,0
 .0418837,-0.0248236,0.0000027,0.02037,-0.1063137,0.,0.0000019,0.000001
 6,0.1387593,-0.0739384,-0.0454612,0.0000048,-0.0721915,0.0003771,0.000
 0025,0.0000013,0.0000017,0.1365412,-0.0739379,-0.0454611,-0.0000048,-0
 .0721912,0.0003774,-0.0000025,-0.0000013,-0.0000017,0.1365412,0.041883
 8,-0.0248237,-0.0000027,0.0203701,-0.1063139,0.,-0.0000019,-0.0000016,
 0.1387592,0.0146115,0.0376846,-0.000002,-0.0421879,-0.1192772,0.000000
 8,-0.000001,0.0000006,0.1086839\Polar=154.7827029,-12.0608312,57.21411
 09,0.,0.,22.373185\PG=C01 [X(C6H8)]\NImag=0\\0.80880895,-0.06790941,0.
 67988759,0.00001882,-0.00000025,0.10190032,-0.44009407,0.16046356,-0.0
 0001070,0.76647304,0.17425597,-0.20346302,0.00000446,-0.10529017,0.692
 30083,-0.00001055,0.00000424,-0.04920652,0.00001470,-0.00000410,0.1323
 7426,-0.05670230,-0.00557781,-0.00000119,-0.19848048,-0.08281166,-0.00
 000296,0.75353021,0.00967459,0.01683351,0.00000035,-0.08122248,-0.1621
 4147,-0.00000165,-0.08756197,0.68668905,-0.00000128,-0.00000024,0.0063
 0279,-0.00000232,-0.00000140,-0.06230816,0.00000354,0.00000354,0.13057
 548,0.01070484,-0.00836086,0.00000018,-0.06064122,0.00928413,-0.000000
 23,-0.39359264,0.15719162,-0.00000030,0.75352921,-0.00644870,-0.002753
 58,-0.00000017,-0.00918704,0.01605738,-0.00000005,0.15719166,-0.202751
 54,-0.00000017,-0.08756248,0.68669115,-0.00000002,-0.00000008,0.002325
 63,-0.00000054,0.00000002,0.00474090,0.00000030,0.00000017,-0.05279920
 ,-0.00000354,-0.00000354,0.13057530,-0.00574704,0.00149419,-0.00000014
 ,0.01143765,0.00451997,0.00000032,-0.06064121,-0.00918705,0.00000054,-
 0.19847973,-0.08122211,0.00000232,0.76647235,0.00069633,0.00207195,0.0
 0000004,0.00451998,-0.00396058,0.00000019,0.00928411,0.01605739,-0.000
 00002,-0.08281128,-0.16214144,0.00000140,-0.10529076,0.69230062,0.0000
 0007,0.00000005,-0.00003778,-0.00000032,-0.00000019,0.01239743,0.00000
 023,0.00000005,0.00474089,0.00000296,0.00000165,-0.06230824,-0.0000147
 0,0.00000410,0.13237433,0.00183029,-0.00161510,0.00000003,-0.00574704,
 0.00069633,-0.00000007,0.01070483,-0.00644870,0.00000002,-0.05670227,0
 .00967457,0.00000128,-0.44009408,0.17425599,0.00001055,0.80880798,-0.0
 0161510,-0.00013700,-0.00000004,0.00149419,0.00207195,-0.00000005,-0.0
 0836085,-0.00275359,0.00000008,-0.00557784,0.01683352,0.00000024,0.160
 46359,-0.20346302,-0.00000424,-0.06791014,0.67988730,-0.00000003,0.000
 00004,-0.00006301,0.00000014,-0.00000004,-0.00003778,-0.00000018,0.000
 00017,0.00232563,0.00000119,-0.00000035,0.00630280,0.00001070,-0.00000
 446,-0.04920650,-0.00001882,0.00000025,0.10190048,0.00172343,-0.001031
 64,0.00000007,0.00304767,-0.02813489,-0.00000004,-0.05971008,0.0118295
 9,-0.00000004,0.00142391,0.03063645,-0.00000004,0.00143537,0.00197513,
 0.,-0.00006533,-0.00022663,0.,0.06116401,0.00115131,0.00111511,0.00000
 004,0.00234840,-0.01482866,0.00000003,0.01333322,-0.32453038,-0.000001
 93,0.00034236,-0.01369560,-0.00000003,-0.00220174,0.00079612,0.0000001
 1,0.00025457,0.00047307,0.,-0.01487865,0.34931370,0.00000004,-0.000000
 04,-0.00143887,-0.00000003,-0.00000033,0.00286464,0.00000019,-0.000002
 04,-0.03988700,-0.00000028,0.00000020,0.00498989,-0.00000002,-0.000000
 07,-0.00647649,-0.00000003,0.00000003,0.00011022,0.00000022,0.00000207
 ,0.02590062,-0.00006533,-0.00022663,0.,0.00143537,0.00197512,0.,0.0014
 2391,0.03063649,0.00000004,-0.05970987,0.01182973,0.00000004,0.0030476
 9,-0.02813490,0.00000004,0.00172343,-0.00103163,-0.00000007,-0.0044619
 3,0.00200569,0.00000002,0.06116378,0.00025456,0.00047307,0.,-0.0022017
 3,0.00079612,-0.00000011,0.00034235,-0.01369557,0.00000003,0.01333337,
 -0.32453250,0.00000193,0.00234842,-0.01482861,-0.00000003,0.00115131,0
 .00111510,-0.00000004,0.00200569,-0.00000179,0.00000014,-0.01487882,0.
 34931574,0.00000003,-0.00000003,0.00011022,0.00000002,0.00000007,-0.00
 647649,0.00000028,-0.00000020,0.00498991,-0.00000019,0.00000204,-0.039
 88673,0.00000003,0.00000033,0.00286463,-0.00000004,0.00000004,-0.00143
 887,-0.00000002,-0.00000014,0.00972414,-0.00000022,-0.00000207,0.02590
 034,-0.00003202,0.00009020,0.,-0.00013567,0.00012545,-0.00000001,0.001
 81783,-0.00139217,-0.00000002,0.00286309,-0.02827412,0.00000002,-0.059
 20236,0.01257179,0.00000042,0.00079818,0.03173623,0.00000007,-0.000287
 35,0.00099368,0.,-0.00428241,-0.00219766,0.00000012,0.06176572,-0.0001
 3170,-0.00011041,0.,-0.00031302,0.00062450,-0.00000001,0.00161741,0.00
 074697,0.00000004,0.00205963,-0.01533422,-0.00000001,0.01388316,-0.326
 39137,-0.00000114,-0.00018824,-0.01205006,0.00000002,-0.00093244,0.000
 71080,-0.00000001,-0.00236300,-0.00032058,-0.00000003,-0.01597244,0.35
 020119,0.,0.,-0.00003648,0.00000003,0.,-0.00021488,-0.00000008,0.00000
 001,-0.00148779,0.00000011,0.00000068,0.00297226,0.00000035,-0.0000011
 7,-0.04171291,0.00000010,-0.00000081,0.00517026,0.,-0.00000003,0.00022
 542,0.00000015,0.00000010,0.00346503,-0.00000083,0.00000123,0.02735273
 ,0.00003226,0.00000349,0.,0.00003661,-0.00008300,0.00000001,-0.0001296
 3,-0.00015108,0.,0.00180961,0.00177088,-0.00000025,0.00187265,0.030629
 28,0.00000005,-0.06196796,0.02068019,0.00000059,0.00009239,-0.00024585
 ,0.00000001,-0.00025352,-0.00087044,0.00000002,-0.00442485,0.00198207,
 0.00000041,0.05753899,0.00006780,-0.00000842,0.,-0.00005077,-0.0000595
 1,0.,0.00031255,0.00044218,0.,-0.00223498,0.00100197,-0.00000002,0.000
 46846,-0.01227433,0.00000003,0.02435432,-0.33638650,0.00000055,-0.0002
 2837,0.00001657,0.,0.00103711,0.00057963,-0.00000001,0.00227710,0.0005
 0870,0.,-0.02932944,0.35746392,0.,0.,0.00001438,-0.00000002,0.,0.00037
 165,0.,0.,-0.00002071,-0.00000017,0.00000001,-0.00760468,0.00000014,-0
 .00000095,0.00464989,0.00000052,0.00000086,-0.03348610,0.,0.,0.0003343
 2,0.00000002,0.00000002,0.00027978,0.00000042,-0.00000010,0.01121938,-
 0.00000082,-0.00000051,0.02212583,-0.00015814,-0.00013967,0.,-0.000188
 89,0.00042186,-0.00000006,-0.00072019,-0.00131300,0.00000001,-0.002172
 94,0.00444741,0.00000042,-0.01981333,-0.01815998,0.00000062,-0.2591301
 2,-0.12960602,0.00000641,0.00000860,0.00008304,0.00000001,0.00016523,-
 0.00011792,0.,0.00108331,0.00015052,-0.00000022,0.00542804,0.00330210,
 -0.00000009,0.27553308,0.00001633,0.00007439,0.,0.00022306,-0.00017720
 ,0.,0.00034600,0.00089347,0.,0.00206035,-0.00145777,-0.00000003,0.0148
 6459,0.01144548,-0.00000040,-0.13417732,-0.14554634,0.00000387,-0.0000
 8662,-0.00001186,0.,0.00039827,0.00038388,-0.00000001,-0.00023937,0.00
 131592,-0.00000002,-0.02434759,-0.01129787,0.00000064,0.14092274,0.144
 37668,0.,0.,-0.00001941,0.00000003,0.00000001,-0.00159612,0.00000008,0
 .00000006,0.00015854,0.00000028,-0.00000022,0.01204204,0.00000052,0.00
 000064,0.00415411,0.00000646,0.00000364,-0.03153562,0.,0.,0.00017322,0
 .,0.,-0.00026492,-0.00000020,0.00000001,-0.00706289,-0.00000003,-0.000
 00005,0.00218726,-0.00000711,-0.00000406,0.02153494,-0.25913113,-0.129
 60653,-0.00000641,-0.01981329,-0.01815995,-0.00000062,-0.00217294,0.00
 444741,-0.00000042,-0.00072019,-0.00131300,-0.00000001,-0.00018889,0.0
 0042185,0.00000006,-0.00015814,-0.00013967,0.,0.00016523,-0.00011792,0
 .,0.00000860,0.00008304,-0.00000001,0.00001574,-0.00002003,0.,0.000005
 95,0.00001188,0.,-0.00005633,0.00001707,0.,0.27553405,-0.13417783,-0.1
 4554640,-0.00000387,0.01486462,0.01144549,0.00000040,0.00206035,-0.001
 45778,0.00000003,0.00034600,0.00089347,0.,0.00022306,-0.00017720,0.,0.
 00001633,0.00007439,0.,0.00039827,0.00038388,0.00000001,-0.00008662,-0
 .00001186,0.,0.00000315,0.00001267,0.,-0.00000066,-0.00000224,0.,0.000
 01707,-0.00000921,0.,0.14092323,0.14437672,-0.00000646,-0.00000364,-0.
 03153546,-0.00000052,-0.00000064,0.00415409,-0.00000028,0.00000022,0.0
 1204204,-0.00000008,-0.00000006,0.00015854,-0.00000003,-0.00000001,-0.
 00159612,0.,0.,-0.00001941,0.,0.,-0.00026492,0.,0.,0.00017322,0.,0.,0.
 00002232,0.,0.,-0.00009562,0.,0.,0.00030216,0.00000711,0.00000406,0.02
 153478,-0.06196792,0.02067995,-0.00000059,0.00187265,0.03062930,-0.000
 00005,0.00180961,0.00177088,0.00000025,-0.00012963,-0.00015108,0.,0.00
 003661,-0.00008300,-0.00000001,0.00003227,0.00000349,0.,-0.00025352,-0
 .00087045,-0.00000002,0.00009239,-0.00024585,-0.00000001,-0.00004743,-
 0.00003216,0.,0.00000689,-0.00000570,0.,0.00000595,-0.00000066,0.,0.00
 542804,-0.02434761,0.00000003,0.05753896,0.02435408,-0.33638669,-0.000
 00055,0.00046847,-0.01227439,-0.00000003,-0.00223499,0.00100197,0.0000
 0002,0.00031256,0.00044218,0.,-0.00005077,-0.00005951,0.,0.00006780,-0
 .00000842,0.,0.00103711,0.00057963,0.00000001,-0.00022837,0.00001657,0
 .,0.00001793,0.00001263,0.,-0.00000570,0.00000326,0.,0.00001188,-0.000
 00224,0.,0.00330210,-0.01129786,0.00000005,-0.02932921,0.35746416,-0.0
 0000052,-0.00000086,-0.03348610,-0.00000014,0.00000095,0.00464991,0.00
 000017,-0.00000001,-0.00760469,0.,0.,-0.00002071,0.00000002,0.,0.00037
 165,0.,0.,0.00001438,-0.00000002,-0.00000002,0.00027978,0.,0.,0.000334
 33,0.,0.,0.00001023,0.,0.,0.00001440,0.,0.,-0.00009562,0.00000009,-0.0
 0000064,0.00218726,0.00000082,0.00000051,0.02212580,0.00079818,0.03173
 626,-0.00000007,-0.05920234,0.01257154,-0.00000042,0.00286308,-0.02827
 414,-0.00000002,0.00181783,-0.00139216,0.00000002,-0.00013567,0.000125
 45,0.00000001,-0.00003202,0.00009020,0.,-0.00428241,-0.00219767,-0.000
 00012,-0.00028736,0.00099368,0.,0.00006824,0.00026024,0.,-0.00004743,0
 .00001793,0.,0.00001574,0.00000315,0.,0.00108331,-0.00023937,0.0000002
 0,-0.00442486,0.00227711,-0.00000042,0.06176570,-0.00018823,-0.0120501
 1,-0.00000002,0.01388293,-0.32639144,0.00000114,0.00205962,-0.01533421
 ,0.00000001,0.00161741,0.00074697,-0.00000004,-0.00031302,0.00062450,0
 .00000001,-0.00013170,-0.00011041,0.,-0.00236300,-0.00032058,0.0000000
 3,-0.00093244,0.00071079,0.00000001,0.00026024,0.00007326,0.,-0.000032
 16,0.00001263,0.,-0.00002003,0.00001267,0.,0.00015052,0.00131592,-0.00
 000001,0.00198208,0.00050870,0.00000010,-0.01597222,0.35020132,-0.0000
 0010,0.00000081,0.00517029,-0.00000035,0.00000117,-0.04171293,-0.00000
 011,-0.00000069,0.00297227,0.00000008,-0.00000001,-0.00148779,-0.00000
 003,0.,-0.00021489,0.,0.,-0.00003648,-0.00000015,-0.00000010,0.0034650
 4,0.,0.00000003,0.00022542,0.,0.,0.00007731,0.,0.,0.00001023,0.,0.,0.0
 0002232,0.00000022,0.00000002,-0.00706289,-0.00000041,0.,0.01121938,0.
 00000083,-0.00000123,0.02735272\\0.00008334,0.00001654,0.00000046,0.00
 010470,-0.00008100,0.00000070,-0.00015434,0.00018396,0.00000008,0.0001
 5447,-0.00018311,0.00000008,-0.00010502,0.00008067,0.00000070,-0.00008
 297,-0.00001622,0.00000046,0.00003458,-0.00003485,-0.00000066,-0.00003
 451,0.00003421,-0.00000066,0.00004371,-0.00002351,-0.00000036,0.000057
 96,0.00000017,-0.00000035,0.00002114,0.00000457,0.00000015,-0.00002140
 ,-0.00000480,0.00000015,-0.00005803,-0.00000009,-0.00000035,-0.0000436
 4,0.00002345,-0.00000036\\\@


 OLD AGE AND TREACHERY WILL ALWAYS PREVAIL OVER YOUTH AND SKILL.
 Job cpu time:  0 days  0 hours  2 minutes  5.7 seconds.
 File lengths (MBytes):  RWF=     24 Int=      0 D2E=      0 Chk=      2 Scr=      1
 Normal termination of Gaussian 09 at Thu Oct  3 21:13:51 2019.
