 Entering Gaussian System, Link 0=g09
 Input=td.com
 Output=td.log
 Initial command:
 /home/diegoa/progs/g09/l1.exe /home/diegoa/g09scratch/Gau-14235.inp -scrdir=/home/diegoa/g09scratch/
 Default is to use a total of   4 processors:
                                4 via shared-memory
                                1 via Linda
 Entering Link 1 = /home/diegoa/progs/g09/l1.exe PID=     14238.
  
 Copyright (c) 1988,1990,1992,1993,1995,1998,2003,2009, Gaussian, Inc.
                  All Rights Reserved.
  
 This is part of the Gaussian(R) 09 program.  It is based on
 the Gaussian(R) 03 system (copyright 2003, Gaussian, Inc.),
 the Gaussian(R) 98 system (copyright 1998, Gaussian, Inc.),
 the Gaussian(R) 94 system (copyright 1995, Gaussian, Inc.),
 the Gaussian 92(TM) system (copyright 1992, Gaussian, Inc.),
 the Gaussian 90(TM) system (copyright 1990, Gaussian, Inc.),
 the Gaussian 88(TM) system (copyright 1988, Gaussian, Inc.),
 the Gaussian 86(TM) system (copyright 1986, Carnegie Mellon
 University), and the Gaussian 82(TM) system (copyright 1983,
 Carnegie Mellon University). Gaussian is a federally registered
 trademark of Gaussian, Inc.
  
 This software contains proprietary and confidential information,
 including trade secrets, belonging to Gaussian, Inc.
  
 This software is provided under written license and may be
 used, copied, transmitted, or stored only in accord with that
 written license.
  
 The following legend is applicable only to US Government
 contracts under FAR:
  
                    RESTRICTED RIGHTS LEGEND
  
 Use, reproduction and disclosure by the US Government is
 subject to restrictions as set forth in subparagraphs (a)
 and (c) of the Commercial Computer Software - Restricted
 Rights clause in FAR 52.227-19.
  
 Gaussian, Inc.
 340 Quinnipiac St., Bldg. 40, Wallingford CT 06492
  
  
 ---------------------------------------------------------------
 Warning -- This program may not be used in any manner that
 competes with the business of Gaussian, Inc. or will provide
 assistance to any competitor of Gaussian, Inc.  The licensee
 of this program is prohibited from giving any competitor of
 Gaussian, Inc. access to this program.  By using this program,
 the user acknowledges that Gaussian, Inc. is engaged in the
 business of creating and licensing software in the field of
 computational chemistry and represents and warrants to the
 licensee that it is not a competitor of Gaussian, Inc. and that
 it will not use this program in any manner prohibited above.
 ---------------------------------------------------------------
  

 Cite this work as:
 Gaussian 09, Revision A.01,
 M. J. Frisch, G. W. Trucks, H. B. Schlegel, G. E. Scuseria, 
 M. A. Robb, J. R. Cheeseman, G. Scalmani, V. Barone, B. Mennucci, 
 G. A. Petersson, H. Nakatsuji, M. Caricato, X. Li, H. P. Hratchian, 
 A. F. Izmaylov, J. Bloino, G. Zheng, J. L. Sonnenberg, M. Hada, 
 M. Ehara, K. Toyota, R. Fukuda, J. Hasegawa, M. Ishida, T. Nakajima, 
 Y. Honda, O. Kitao, H. Nakai, T. Vreven, J. A. Montgomery, Jr., 
 J. E. Peralta, F. Ogliaro, M. Bearpark, J. J. Heyd, E. Brothers, 
 K. N. Kudin, V. N. Staroverov, R. Kobayashi, J. Normand, 
 K. Raghavachari, A. Rendell, J. C. Burant, S. S. Iyengar, J. Tomasi, 
 M. Cossi, N. Rega, J. M. Millam, M. Klene, J. E. Knox, J. B. Cross, 
 V. Bakken, C. Adamo, J. Jaramillo, R. Gomperts, R. E. Stratmann, 
 O. Yazyev, A. J. Austin, R. Cammi, C. Pomelli, J. W. Ochterski, 
 R. L. Martin, K. Morokuma, V. G. Zakrzewski, G. A. Voth, 
 P. Salvador, J. J. Dannenberg, S. Dapprich, A. D. Daniels, 
 O. Farkas, J. B. Foresman, J. V. Ortiz, J. Cioslowski, 
 and D. J. Fox, Gaussian, Inc., Wallingford CT, 2009.
 
 ******************************************
 Gaussian 09:  EM64L-G09RevA.01  8-May-2009
                 3-Oct-2019 
 ******************************************
 %chk=td.chk
 %nProcShared=4
 Will use up to    4 processors via shared memory.
 Default route:  MP2=Direct MaxDisk=1000GB DenFit
 ---------------------------------
 # B3LYP/6-31G(d) TD(root=1) force
 ---------------------------------
 1/10=7,30=1,38=1/1,3;
 2/12=2,17=6,18=5,40=1/2;
 3/5=1,6=6,7=1,11=2,16=1,25=1,30=1,71=1,74=-5,82=47/1,2,8,3;
 4//1;
 5/5=2,38=5/2;
 8/6=1,10=2,107=1/1;
 9/8=1,15=2,42=1/14;
 10/5=4/2;
 6/7=2,8=2,9=2,10=2,18=1/1;
 7/12=6,13=5,14=1,29=1/1,2,3,16;
 1/10=7,30=1/3;
 99//99;
 -----
 Title
 -----
 Symbolic Z-matrix:
 Charge =  0 Multiplicity = 1
 6                     3.07611  -0.16755   0.00003 
 6                     1.86812   0.41946  -0.00001 
 6                     0.60736  -0.29696  -0.00003 
 6                    -0.60736   0.29696  -0.00003 
 6                    -1.86812  -0.41946  -0.00001 
 6                    -3.07611   0.16755   0.00003 
 1                     0.66336  -1.38657  -0.00004 
 1                    -0.66336   1.38657  -0.00004 
 1                    -1.80551  -1.50822  -0.00001 
 1                    -3.18232   1.25011   0.00003 
 1                    -3.99363  -0.41265   0.00005 
 1                     3.99363   0.41264   0.00005 
 1                     3.18232  -1.25011   0.00003 
 1                     1.80551   1.50822  -0.00001 
 

 GradGradGradGradGradGradGradGradGradGradGradGradGradGradGradGradGradGrad
 Berny optimization.
 Initialization pass.
 Trust Radius=3.00D-01 FncErr=1.00D-07 GrdErr=1.00D-07
 Number of steps in this run=   2 maximum allowed number of steps=   2.
 GradGradGradGradGradGradGradGradGradGradGradGradGradGradGradGradGradGrad

                          Input orientation:                          
 ---------------------------------------------------------------------
 Center     Atomic      Atomic             Coordinates (Angstroms)
 Number     Number       Type             X           Y           Z
 ---------------------------------------------------------------------
      1          6           0        3.076112   -0.167551    0.000027
      2          6           0        1.868124    0.419457   -0.000005
      3          6           0        0.607363   -0.296955   -0.000028
      4          6           0       -0.607363    0.296956   -0.000028
      5          6           0       -1.868124   -0.419457   -0.000005
      6          6           0       -3.076112    0.167551    0.000027
      7          1           0        0.663363   -1.386571   -0.000036
      8          1           0       -0.663363    1.386571   -0.000036
      9          1           0       -1.805510   -1.508224   -0.000010
     10          1           0       -3.182321    1.250111    0.000025
     11          1           0       -3.993633   -0.412645    0.000053
     12          1           0        3.993633    0.412644    0.000053
     13          1           0        3.182320   -1.250111    0.000025
     14          1           0        1.805511    1.508224   -0.000010
 ---------------------------------------------------------------------
                    Distance matrix (angstroms):
                    1          2          3          4          5
     1  C    0.000000
     2  C    1.343061   0.000000
     3  C    2.472138   1.450091   0.000000
     4  C    3.712648   2.478516   1.352143   0.000000
     5  C    4.950649   3.829272   2.478516   1.450092   0.000000
     6  C    6.161343   4.950649   3.712648   2.472138   1.343061
     7  H    2.703214   2.170987   1.091054   2.109267   2.709933
     8  H    4.049564   2.709933   2.109266   1.091053   2.170987
     9  H    5.062375   4.148679   2.699839   2.166617   1.090566
    10  H    6.416989   5.118299   4.093302   2.745708   2.124752
    11  H    7.073992   5.920523   4.602450   3.459821   2.125520
    12  H    1.085574   2.125520   3.459820   4.602450   5.920523
    13  H    1.087757   2.124751   2.745708   4.093301   5.118298
    14  H    2.103009   1.090566   2.166617   2.699839   4.148680
                    6          7          8          9         10
     6  C    0.000000
     7  H    4.049564   0.000000
     8  H    2.703214   3.074170   0.000000
     9  H    2.103010   2.471868   3.111967   0.000000
    10  H    1.087758   4.662765   2.522652   3.082859   0.000000
    11  H    1.085575   4.757746   3.785218   2.447075   1.850131
    12  H    7.073992   3.785218   4.757746   6.108993   7.224657
    13  H    6.416988   2.522651   4.662764   4.994504   6.838111
    14  H    5.062376   3.111967   2.471869   4.705149   4.994506
                   11         12         13         14
    11  H    0.000000
    12  H    8.029790   0.000000
    13  H    7.224656   1.850131   0.000000
    14  H    6.108994   2.447074   3.082858   0.000000
 Stoichiometry    C6H8
 Framework group  C1[X(C6H8)]
 Deg. of freedom    36
 Full point group                 C1      NOp   1
 Largest Abelian subgroup         C1      NOp   1
 Largest concise Abelian subgroup C1      NOp   1
                         Standard orientation:                         
 ---------------------------------------------------------------------
 Center     Atomic      Atomic             Coordinates (Angstroms)
 Number     Number       Type             X           Y           Z
 ---------------------------------------------------------------------
      1          6           0       -3.076112    0.167551    0.000027
      2          6           0       -1.868124   -0.419457   -0.000005
      3          6           0       -0.607363    0.296955   -0.000028
      4          6           0        0.607363   -0.296956   -0.000028
      5          6           0        1.868124    0.419457   -0.000005
      6          6           0        3.076112   -0.167551    0.000027
      7          1           0       -0.663363    1.386571   -0.000036
      8          1           0        0.663363   -1.386571   -0.000036
      9          1           0        1.805510    1.508224   -0.000010
     10          1           0        3.182321   -1.250111    0.000025
     11          1           0        3.993633    0.412645    0.000053
     12          1           0       -3.993633   -0.412644    0.000053
     13          1           0       -3.182320    1.250111    0.000025
     14          1           0       -1.805511   -1.508224   -0.000010
 ---------------------------------------------------------------------
 Rotational constants (GHZ):     26.6503372      1.3308861      1.2675845
 Standard basis: 6-31G(d) (6D, 7F)
 There are   106 symmetry adapted basis functions of A   symmetry.
 Integral buffers will be    131072 words long.
 Raffenetti 2 integral format.
 Two-electron integral symmetry is turned on.
   106 basis functions,   200 primitive gaussians,   106 cartesian basis functions
    22 alpha electrons       22 beta electrons
       nuclear repulsion energy       193.6362050878 Hartrees.
 NAtoms=   14 NActive=   14 NUniq=   14 SFac= 7.50D-01 NAtFMM=   80 NAOKFM=F Big=F
 Standard density basis: Auto (5D, 7F)
   410 Density fitting functions
 There are   410 symmetry adapted density basis functions of A   symmetry.
 One-electron integrals computed using PRISM.
 NBasis=   106 RedAO= T  NBF=   106
 NBsUse=   106 1.00D-06 NBFU=   106
 Harris functional with IExCor=  402 diagonalized for initial guess.
 ExpMin= 1.61D-01 ExpMax= 3.05D+03 ExpMxC= 4.57D+02 IAcc=1 IRadAn=         1 AccDes= 0.00D+00
 HarFok:  IExCor=  402 AccDes= 0.00D+00 IRadAn=         1 IDoV= 1
 ScaDFX=  1.000000  1.000000  1.000000  1.000000
 FoFCou: FMM=F IPFlag=           0 FMFlag=      100000 FMFlg1=           0
         NFxFlg=           0 DoJE=T BraDBF=F KetDBF=T FulRan=T
         Omega=  0.000000  0.000000  1.000000  0.000000  0.000000 ICntrl=     500 IOpCl=  0
         NMat0=    1 NMatS0=    1 NMatT0=    0 NMatD0=    1 NMtDS0=    0 NMtDT0=    0
         I1Cent=           4 NGrid=           0.
 Petite list used in FoFCou.
 Initial guess orbital symmetries:
       Occupied  (A) (A) (A) (A) (A) (A) (A) (A) (A) (A) (A) (A)
                 (A) (A) (A) (A) (A) (A) (A) (A) (A) (A)
       Virtual   (A) (A) (A) (A) (A) (A) (A) (A) (A) (A) (A) (A)
                 (A) (A) (A) (A) (A) (A) (A) (A) (A) (A) (A) (A)
                 (A) (A) (A) (A) (A) (A) (A) (A) (A) (A) (A) (A)
                 (A) (A) (A) (A) (A) (A) (A) (A) (A) (A) (A) (A)
                 (A) (A) (A) (A) (A) (A) (A) (A) (A) (A) (A) (A)
                 (A) (A) (A) (A) (A) (A) (A) (A) (A) (A) (A) (A)
                 (A) (A) (A) (A) (A) (A) (A) (A) (A) (A) (A) (A)
 The electronic state of the initial guess is 1-A.
 Requested convergence on RMS density matrix=1.00D-08 within 128 cycles.
 Requested convergence on MAX density matrix=1.00D-06.
 Requested convergence on             energy=1.00D-06.
 No special actions if energy rises.
 Keep R1 ints in memory in canonical form, NReq=17180128.
 Integral accuracy reduced to 1.0D-05 until final iterations.
 Initial convergence to 1.0D-05 achieved.  Increase integral accuracy.
 SCF Done:  E(RB3LYP) =  -233.398566429     A.U. after   13 cycles
             Convg  =    0.2345D-08             -V/T =  2.0102
 ExpMin= 1.61D-01 ExpMax= 3.05D+03 ExpMxC= 4.57D+02 IAcc=1 IRadAn=         1 AccDes= 0.00D+00
 HarFok:  IExCor=  205 AccDes= 0.00D+00 IRadAn=         1 IDoV=-2
 ScaDFX=  1.000000  1.000000  1.000000  1.000000
 Range of M.O.s used for correlation:     7   106
 NBasis=   106 NAE=    22 NBE=    22 NFC=     6 NFV=     0
 NROrb=    100 NOA=    16 NOB=    16 NVA=    84 NVB=    84
 Orbital symmetries:
       Occupied  (A) (A) (A) (A) (A) (A) (A) (A) (A) (A) (A) (A)
                 (A) (A) (A) (A) (A) (A) (A) (A) (A) (A)
       Virtual   (A) (A) (A) (A) (A) (A) (A) (A) (A) (A) (A) (A)
                 (A) (A) (A) (A) (A) (A) (A) (A) (A) (A) (A) (A)
                 (A) (A) (A) (A) (A) (A) (A) (A) (A) (A) (A) (A)
                 (A) (A) (A) (A) (A) (A) (A) (A) (A) (A) (A) (A)
                 (A) (A) (A) (A) (A) (A) (A) (A) (A) (A) (A) (A)
                 (A) (A) (A) (A) (A) (A) (A) (A) (A) (A) (A) (A)
                 (A) (A) (A) (A) (A) (A) (A) (A) (A) (A) (A) (A)
    12 initial guesses have been made.
 Convergence on wavefunction:    0.000001000000000
 Iteration     1 Dimension    12 NMult    12
 CISAX will form    12 AO SS matrices at one time.
 No map to state      3
 Iteration     2 Dimension    18 NMult    18
 Iteration     3 Dimension    24 NMult    24
 Iteration     4 Dimension    30 NMult    30
 Iteration     5 Dimension    36 NMult    36
 Iteration     6 Dimension    42 NMult    42
 Iteration     7 Dimension    48 NMult    48
 Iteration     8 Dimension    54 NMult    54
 Iteration     9 Dimension    60 NMult    60
 Iteration    10 Dimension    62 NMult    62
 Iteration    11 Dimension    64 NMult    64
 ***********************************************************************
 Excited states from <AA,BB:AA,BB> singles matrix:
 ***********************************************************************
 
 Ground to excited state transition electric dipole moments (Au):
       state          X           Y           Z        Dip. S.      Osc.
         1         2.9422     -0.2916      0.0000      8.7415      1.0431
         2         0.0000      0.0000      0.0000      0.0000      0.0000
         3         0.0000      0.0000      0.0000      0.0000      0.0000
 Ground to excited state transition velocity dipole moments (Au):
       state          X           Y           Z        Dip. S.      Osc.
         1        -0.5105      0.0562      0.0000      0.2638      0.9824
         2         0.0000      0.0000      0.0000      0.0000      0.0000
         3         0.0000      0.0000      0.0000      0.0000      0.0000
 Ground to excited state transition magnetic dipole moments (Au):
       state          X           Y           Z
         1         0.0000      0.0000      0.0000
         2         0.0000      0.0000      0.1253
         3         0.1856     -0.1600      0.0000
 <0|del|b> * <b|rxdel|0> + <0|del|b> * <b|delr+rdel|0>
 Rotatory Strengths (R) in cgs (10**-40 erg-esu-cm/Gauss)
       state          XX          YY          ZZ    R(velocity)
         1         0.0063     -0.0032      0.0001      0.0011
 Total R(velocity) tensor for State=          1
                 1             2             3 
      1   0.633887D-02  0.575733D-01 -0.931597D-03
      2  -0.347939D-03 -0.316019D-02 -0.219414D-04
      3  -0.423347D-05 -0.384508D-04  0.134175D-03
 R(velocity) tensor in inp. orien. for State=          1
                 1             2             3 
      1   0.633887D-02  0.575733D-01  0.931597D-03
      2  -0.347939D-03 -0.316019D-02  0.219415D-04
      3   0.423346D-05  0.384508D-04  0.134175D-03
         2         0.0001      0.0002      0.0000      0.0001
 Total R(velocity) tensor for State=          2
                 1             2             3 
      1   0.102904D-03 -0.334915D-03  0.195466D-04
      2  -0.274212D-05  0.171943D-03 -0.385612D-05
      3   0.000000D+00  0.232798D-05  0.000000D+00
 R(velocity) tensor in inp. orien. for State=          2
                 1             2             3 
      1   0.102904D-03 -0.334915D-03 -0.195466D-04
      2  -0.274213D-05  0.171943D-03  0.385612D-05
      3   0.000000D+00 -0.232798D-05  0.000000D+00
         3        -0.0001     -0.0018     -0.0015     -0.0011
 Total R(velocity) tensor for State=          3
                 1             2             3 
      1  -0.117379D-03 -0.144093D-02  0.000000D+00
      2  -0.143759D-03 -0.176476D-02  0.000000D+00
      3   0.112237D-04 -0.103275D-04 -0.148009D-02
 R(velocity) tensor in inp. orien. for State=          3
                 1             2             3 
      1  -0.117379D-03 -0.144093D-02  0.000000D+00
      2  -0.143759D-03 -0.176476D-02  0.000000D+00
      3  -0.112237D-04  0.103275D-04 -0.148009D-02
 1/2[<0|r|b>*<b|rxdel|0> + (<0|rxdel|b>*<b|r|0>)*]
 Rotatory Strengths (R) in cgs (10**-40 erg-esu-cm/Gauss)
       state          XX          YY          ZZ     R(length)     R(au)
         1        -0.0042      0.0068      0.0000      0.0009      0.0000
         2         0.0000      0.0000      0.0004      0.0001      0.0000
         3        -0.0038      0.0001      0.0000     -0.0012      0.0000
  1/2[<0|del|b>*<b|r|0> + (<0|r|b>*<b|del|0>)*] (Au)
       state          X           Y           Z        Dip. S.   Osc.(frdel)
         1        -1.5020     -0.0164      0.0000      1.5184      1.0122
         2         0.0000      0.0000      0.0000      0.0000      0.0000
         3         0.0000      0.0000      0.0000      0.0000      0.0000
 Ground to excited state transition densities written to RWF  633

 Excitation energies and oscillator strengths:
 
 Excited State   1:      Singlet-A      4.8706 eV  254.56 nm  f=1.0431  <S**2>=0.000
      22 -> 23         0.71217
      22 <- 23        -0.12131
 This state for optimization and/or second-order correction.
 Copying the excited state density for this state as the 1-particle RhoCI density.
 
 Excited State   2:      Singlet-A      5.8668 eV  211.33 nm  f=0.0000  <S**2>=0.000
      21 -> 23         0.55195
      22 -> 24         0.43930
 
 Excited State   3:      Singlet-A      6.9569 eV  178.22 nm  f=0.0000  <S**2>=0.000
      19 -> 23         0.70048
 SavETr:  write IOETrn=   770 NScale= 10 NData=  16 NLR=1 LETran=      64.
          IDoAtm=11111111111111
          Differentiating once with respect to electric field.
                with respect to dipole field.
          Differentiating once with respect to nuclear coordinates.
          Keep R1 ints in memory in canonical form, NReq=16910326.
          There are     1 degrees of freedom in the 1st order CPHF.  IDoFFX=0.
 LinEq1:  Iter=  0 NonCon=     1 RMS=1.27D-02 Max=3.98D-01
 AX will form     1 AO Fock derivatives at one time.
 LinEq1:  Iter=  1 NonCon=     1 RMS=2.44D-03 Max=5.11D-02
 LinEq1:  Iter=  2 NonCon=     1 RMS=1.87D-03 Max=3.96D-02
 LinEq1:  Iter=  3 NonCon=     1 RMS=9.73D-04 Max=2.27D-02
 LinEq1:  Iter=  4 NonCon=     1 RMS=4.86D-04 Max=1.57D-02
 LinEq1:  Iter=  5 NonCon=     1 RMS=1.80D-04 Max=3.61D-03
 LinEq1:  Iter=  6 NonCon=     1 RMS=4.92D-05 Max=4.67D-04
 LinEq1:  Iter=  7 NonCon=     1 RMS=4.44D-06 Max=5.39D-05
 LinEq1:  Iter=  8 NonCon=     1 RMS=8.11D-07 Max=1.13D-05
 LinEq1:  Iter=  9 NonCon=     1 RMS=8.77D-08 Max=1.29D-06
 LinEq1:  Iter= 10 NonCon=     1 RMS=6.34D-08 Max=2.22D-06
 LinEq1:  Iter= 11 NonCon=     1 RMS=2.20D-08 Max=2.36D-07
 LinEq1:  Iter= 12 NonCon=     1 RMS=3.01D-09 Max=3.21D-08
 LinEq1:  Iter= 13 NonCon=     1 RMS=1.97D-09 Max=4.34D-08
 LinEq1:  Iter= 14 NonCon=     1 RMS=6.75D-10 Max=8.81D-09
 LinEq1:  Iter= 15 NonCon=     1 RMS=1.49D-10 Max=2.11D-09
 LinEq1:  Iter= 16 NonCon=     0 RMS=7.93D-11 Max=8.74D-10
 Linear equations converged to 1.000D-10 1.000D-09 after    16 iterations.
 End of Minotr Frequency-dependent properties file   721 does not exist.
 End of Minotr Frequency-dependent properties file   722 does not exist.

 **********************************************************************

            Population analysis using the SCF density.

 **********************************************************************

 Orbital symmetries:
       Occupied  (A) (A) (A) (A) (A) (A) (A) (A) (A) (A) (A) (A)
                 (A) (A) (A) (A) (A) (A) (A) (A) (A) (A)
       Virtual   (A) (A) (A) (A) (A) (A) (A) (A) (A) (A) (A) (A)
                 (A) (A) (A) (A) (A) (A) (A) (A) (A) (A) (A) (A)
                 (A) (A) (A) (A) (A) (A) (A) (A) (A) (A) (A) (A)
                 (A) (A) (A) (A) (A) (A) (A) (A) (A) (A) (A) (A)
                 (A) (A) (A) (A) (A) (A) (A) (A) (A) (A) (A) (A)
                 (A) (A) (A) (A) (A) (A) (A) (A) (A) (A) (A) (A)
                 (A) (A) (A) (A) (A) (A) (A) (A) (A) (A) (A) (A)
 The electronic state is 1-A.
 Alpha  occ. eigenvalues --  -10.19336 -10.19332 -10.19277 -10.19205 -10.18406
 Alpha  occ. eigenvalues --  -10.18406  -0.81677  -0.77585  -0.71720  -0.61903
 Alpha  occ. eigenvalues --   -0.55721  -0.55312  -0.48266  -0.45758  -0.42844
 Alpha  occ. eigenvalues --   -0.40308  -0.37956  -0.36117  -0.34447  -0.33754
 Alpha  occ. eigenvalues --   -0.28592  -0.20925
 Alpha virt. eigenvalues --   -0.04434   0.04759   0.10067   0.10230   0.12384
 Alpha virt. eigenvalues --    0.13065   0.14325   0.16379   0.18672   0.18735
 Alpha virt. eigenvalues --    0.21033   0.31114   0.33531   0.35104   0.37419
 Alpha virt. eigenvalues --    0.41084   0.47602   0.49947   0.52352   0.55261
 Alpha virt. eigenvalues --    0.59006   0.59876   0.60204   0.61551   0.61957
 Alpha virt. eigenvalues --    0.64736   0.67365   0.69022   0.69481   0.71182
 Alpha virt. eigenvalues --    0.82793   0.85087   0.86146   0.87106   0.88374
 Alpha virt. eigenvalues --    0.89468   0.92665   0.93991   0.97047   0.98988
 Alpha virt. eigenvalues --    1.05656   1.07061   1.10469   1.14561   1.27106
 Alpha virt. eigenvalues --    1.28167   1.32592   1.33745   1.35378   1.43525
 Alpha virt. eigenvalues --    1.46439   1.50752   1.60359   1.70070   1.75524
 Alpha virt. eigenvalues --    1.81676   1.83358   1.90134   1.97229   1.98049
 Alpha virt. eigenvalues --    1.98453   2.01372   2.11006   2.15478   2.18537
 Alpha virt. eigenvalues --    2.26234   2.28710   2.35459   2.40052   2.42173
 Alpha virt. eigenvalues --    2.48417   2.48890   2.62698   2.75136   2.86274
 Alpha virt. eigenvalues --    2.86839   3.04084   3.04892   4.08721   4.09946
 Alpha virt. eigenvalues --    4.14493   4.20205   4.35795   4.50414
          Condensed to atoms (all electrons):
              1          2          3          4          5          6
     1  C    5.079837   0.623831  -0.024384   0.002805  -0.000240   0.000003
     2  C    0.623831   4.755374   0.436251  -0.012377   0.003767  -0.000240
     3  C   -0.024384   0.436251   4.885981   0.592302  -0.012377   0.002805
     4  C    0.002805  -0.012377   0.592302   4.885981   0.436251  -0.024384
     5  C   -0.000240   0.003767  -0.012377   0.436251   4.755374   0.623831
     6  C    0.000003  -0.000240   0.002805  -0.024384   0.623831   5.079838
     7  H   -0.005673  -0.051574   0.362780  -0.054808  -0.007886   0.000356
     8  H    0.000356  -0.007886  -0.054808   0.362780  -0.051574  -0.005673
     9  H   -0.000001   0.000265  -0.006602  -0.053278   0.367432  -0.052635
    10  H    0.000000   0.000004   0.000315  -0.010753  -0.035242   0.367950
    11  H    0.000000   0.000002  -0.000173   0.003690  -0.019654   0.363390
    12  H    0.363390  -0.019654   0.003690  -0.000173   0.000002   0.000000
    13  H    0.367950  -0.035242  -0.010753   0.000315   0.000004   0.000000
    14  H   -0.052635   0.367432  -0.053278  -0.006602   0.000265  -0.000001
              7          8          9         10         11         12
     1  C   -0.005673   0.000356  -0.000001   0.000000   0.000000   0.363390
     2  C   -0.051574  -0.007886   0.000265   0.000004   0.000002  -0.019654
     3  C    0.362780  -0.054808  -0.006602   0.000315  -0.000173   0.003690
     4  C   -0.054808   0.362780  -0.053278  -0.010753   0.003690  -0.000173
     5  C   -0.007886  -0.051574   0.367432  -0.035242  -0.019654   0.000002
     6  C    0.000356  -0.005673  -0.052635   0.367950   0.363390   0.000000
     7  H    0.610240   0.006145   0.005359   0.000013  -0.000005  -0.000015
     8  H    0.006145   0.610240   0.005419   0.005474  -0.000015  -0.000005
     9  H    0.005359   0.005419   0.608429   0.005738  -0.006929   0.000000
    10  H    0.000013   0.005474   0.005738   0.566985  -0.041723   0.000000
    11  H   -0.000005  -0.000015  -0.006929  -0.041723   0.556680   0.000000
    12  H   -0.000015  -0.000005   0.000000   0.000000   0.000000   0.556679
    13  H    0.005474   0.000013   0.000001   0.000000   0.000000  -0.041723
    14  H    0.005419   0.005359   0.000009   0.000001   0.000000  -0.006929
             13         14
     1  C    0.367950  -0.052635
     2  C   -0.035242   0.367432
     3  C   -0.010753  -0.053278
     4  C    0.000315  -0.006602
     5  C    0.000004   0.000265
     6  C    0.000000  -0.000001
     7  H    0.005474   0.005419
     8  H    0.000013   0.005359
     9  H    0.000001   0.000009
    10  H    0.000000   0.000001
    11  H    0.000000   0.000000
    12  H   -0.041723  -0.006929
    13  H    0.566985   0.005738
    14  H    0.005738   0.608430
 Mulliken atomic charges:
              1
     1  C   -0.355241
     2  C   -0.059952
     3  C   -0.121750
     4  C   -0.121750
     5  C   -0.059953
     6  C   -0.355241
     7  H    0.124175
     8  H    0.124175
     9  H    0.126793
    10  H    0.141239
    11  H    0.144737
    12  H    0.144737
    13  H    0.141239
    14  H    0.126793
 Sum of Mulliken atomic charges =   0.00000
 Mulliken charges with hydrogens summed into heavy atoms:
              1
     1  C   -0.069265
     2  C    0.066840
     3  C    0.002424
     4  C    0.002425
     5  C    0.066840
     6  C   -0.069265
 Sum of Mulliken charges with hydrogens summed into heavy atoms =   0.00000
 Electronic spatial extent (au):  <R**2>=            918.4773
 Charge=              0.0000 electrons
 Dipole moment (field-independent basis, Debye):
    X=              0.0000    Y=              0.0000    Z=              0.0000  Tot=              0.0000
 Quadrupole moment (field-independent basis, Debye-Ang):
   XX=            -33.7392   YY=            -33.1461   ZZ=            -40.8286
   XY=              0.0322   XZ=              0.0000   YZ=              0.0000
 Traceless Quadrupole moment (field-independent basis, Debye-Ang):
   XX=              2.1654   YY=              2.7585   ZZ=             -4.9240
   XY=              0.0322   XZ=              0.0000   YZ=              0.0000
 Octapole moment (field-independent basis, Debye-Ang**2):
  XXX=              0.0000  YYY=              0.0000  ZZZ=              0.0000  XYY=              0.0000
  XXY=              0.0000  XXZ=              0.0007  XZZ=              0.0000  YZZ=              0.0000
  YYZ=             -0.0001  XYZ=              0.0001
 Hexadecapole moment (field-independent basis, Debye-Ang**3):
 XXXX=          -1036.1522 YYYY=            -97.9513 ZZZZ=            -42.4072 XXXY=              9.4982
 XXXZ=              0.0000 YYYX=             -1.8032 YYYZ=              0.0000 ZZZX=              0.0000
 ZZZY=              0.0000 XXYY=           -189.2647 XXZZ=           -217.2925 YYZZ=            -25.9838
 XXYZ=              0.0000 YYXZ=              0.0000 ZZXY=             -0.0657
 N-N= 1.936362050878D+02 E-N=-9.267343914541D+02  KE= 2.310398575376D+02
 Calling FoFJK, ICntrl=      5127 FMM=F ISym2X=0 I1Cent= 0 IOpClX= 0 NMat=1 NMatS=1 NMatT=0.
 ***** Axes restored to original set *****
 -------------------------------------------------------------------
 Center     Atomic                   Forces (Hartrees/Bohr)
 Number     Number              X              Y              Z
 -------------------------------------------------------------------
      1        6           0.042868400   -0.018893654    0.000000671
      2        6          -0.058771514    0.006150110   -0.000001306
      3        6           0.075992770   -0.013695928   -0.000000091
      4        6          -0.075992883    0.013695072   -0.000000091
      5        6           0.058771806   -0.006149770   -0.000001306
      6        6          -0.042868773    0.018893328    0.000000671
      7        1           0.000122167   -0.000061396    0.000000277
      8        1          -0.000122240    0.000062035    0.000000277
      9        1           0.000667421   -0.000405883    0.000000393
     10        1          -0.000372095    0.000341400    0.000000303
     11        1          -0.000477310    0.000122553   -0.000000248
     12        1           0.000477578   -0.000122326   -0.000000248
     13        1           0.000372163   -0.000341486    0.000000303
     14        1          -0.000667490    0.000405946    0.000000393
 -------------------------------------------------------------------
 Cartesian Forces:  Max     0.075992883 RMS     0.023553599

 GradGradGradGradGradGradGradGradGradGradGradGradGradGradGradGradGradGrad
 Berny optimization.
 Search for a local minimum.
 Step number   1 out of a maximum of    2
 All quantities printed in internal units (Hartrees-Bohrs-Radians)
 Second derivative matrix not updated -- first step.
     Eigenvalues ---    0.00217   0.00403   0.00506   0.00832   0.01736
     Eigenvalues ---    0.02290   0.02791   0.02803   0.03532   0.07170
     Eigenvalues ---    0.07262   0.07277   0.08086   0.08670   0.09561
     Eigenvalues ---    0.13862   0.14682   0.15738   0.18858   0.20089
     Eigenvalues ---    0.24026   0.24454   0.30330   0.33921   0.38438
     Eigenvalues ---    0.50452   0.60324   0.65676   0.67420   0.90307
     Eigenvalues ---    0.96084   1.18074   1.33433   1.38862   1.57750
     Eigenvalues ---    1.70334
 Quadratic step=3.352D-01 exceeds max=3.000D-01 adjusted using Lamda=-4.012D-03.
 Angle between NR and scaled steps=   4.01 degrees.
 Angle between quadratic step and forces=  66.90 degrees.
 Linear search not attempted -- first point.
 TrRot=  0.000000  0.000000  0.000000 -0.000585  0.000000 -0.000585
 Variable       Old X    -DE/DX   Delta X   Delta X   Delta X     New X
                                 (Linear)    (Quad)   (Total)
    X1        5.81301   0.04287   0.00000   0.09774   0.09734   5.91035
    Y1       -0.31663  -0.01889   0.00000  -0.02040  -0.02732  -0.34395
    Z1        0.00005   0.00000   0.00000  -0.00001  -0.00001   0.00004
    X2        3.53024  -0.05877   0.00000   0.00560   0.00650   3.53675
    Y2        0.79266   0.00615   0.00000  -0.02146  -0.02560   0.76706
    Z2       -0.00001   0.00000   0.00000   0.00000   0.00001   0.00000
    X3        1.14775   0.07599   0.00000   0.06104   0.06037   1.20812
    Y3       -0.56116  -0.01370   0.00000  -0.00898  -0.01039  -0.57156
    Z3       -0.00005   0.00000   0.00000   0.00001   0.00001  -0.00005
    X4       -1.14775  -0.07599   0.00000  -0.06104  -0.06037  -1.20812
    Y4        0.56117   0.01370   0.00000   0.00898   0.01039   0.57156
    Z4       -0.00005   0.00000   0.00000   0.00001   0.00001  -0.00005
    X5       -3.53024   0.05877   0.00000  -0.00560  -0.00650  -3.53675
    Y5       -0.79266  -0.00615   0.00000   0.02146   0.02560  -0.76706
    Z5       -0.00001   0.00000   0.00000   0.00000   0.00001   0.00000
    X6       -5.81301  -0.04287   0.00000  -0.09774  -0.09734  -5.91035
    Y6        0.31663   0.01889   0.00000   0.02040   0.02732   0.34395
    Z6        0.00005   0.00000   0.00000  -0.00001  -0.00001   0.00004
    X7        1.25357   0.00012   0.00000   0.07983   0.07675   1.33033
    Y7       -2.62024  -0.00006   0.00000  -0.00806  -0.00962  -2.62986
    Z7       -0.00007   0.00000   0.00000   0.00001   0.00001  -0.00006
    X8       -1.25357  -0.00012   0.00000  -0.07983  -0.07675  -1.33033
    Y8        2.62024   0.00006   0.00000   0.00806   0.00962   2.62986
    Z8       -0.00007   0.00000   0.00000   0.00001   0.00001  -0.00006
    X9       -3.41192   0.00067   0.00000   0.02466   0.02135  -3.39057
    Y9       -2.85013  -0.00041   0.00000   0.02166   0.02562  -2.82451
    Z9       -0.00002   0.00000   0.00000   0.00002   0.00002   0.00000
   X10       -6.01372  -0.00037   0.00000  -0.12684  -0.12405  -6.13776
   Y10        2.36237   0.00034   0.00000   0.01822   0.02541   2.38778
   Z10        0.00005   0.00000   0.00000  -0.00001  -0.00001   0.00004
   X11       -7.54687  -0.00048   0.00000  -0.08242  -0.08334  -7.63021
   Y11       -0.77979   0.00012   0.00000  -0.00414   0.00479  -0.77500
   Z11        0.00010   0.00000   0.00000  -0.00002  -0.00002   0.00008
   X12        7.54687   0.00048   0.00000   0.08242   0.08334   7.63021
   Y12        0.77978  -0.00012   0.00000   0.00414  -0.00479   0.77499
   Z12        0.00010   0.00000   0.00000  -0.00002  -0.00002   0.00008
   X13        6.01371   0.00037   0.00000   0.12684   0.12405   6.13776
   Y13       -2.36237  -0.00034   0.00000  -0.01822  -0.02541  -2.38778
   Z13        0.00005   0.00000   0.00000  -0.00001  -0.00001   0.00004
   X14        3.41192  -0.00067   0.00000  -0.02466  -0.02135   3.39057
   Y14        2.85013   0.00041   0.00000  -0.02166  -0.02562   2.82451
   Z14       -0.00002   0.00000   0.00000   0.00002   0.00002   0.00000
         Item               Value     Threshold  Converged?
 Maximum Force            0.075993     0.000450     NO 
 RMS     Force            0.023554     0.000300     NO 
 Maximum Displacement     0.124050     0.001800     NO 
 RMS     Displacement     0.046173     0.001200     NO 
 Predicted change in Energy=-9.166489D-03
 GradGradGradGradGradGradGradGradGradGradGradGradGradGradGradGradGradGrad

 1\1\GINC-CLODOMIRA\Force\RTD-B3LYP-FC\6-31G(d)\C6H8\DIEGOA\03-Oct-2019
 \0\\# B3LYP/6-31G(d) TD(root=1) force\\Title\\0,1\C,3.076112,-0.167551
 ,0.000027\C,1.868124,0.419457,-0.000005\C,0.607363,-0.296955,-0.000028
 \C,-0.607363,0.296956,-0.000028\C,-1.868124,-0.419457,-0.000005\C,-3.0
 76112,0.167551,0.000027\H,0.663363,-1.386571,-0.000036\H,-0.663363,1.3
 86571,-0.000036\H,-1.80551,-1.508224,-0.00001\H,-3.182321,1.250111,0.0
 00025\H,-3.993633,-0.412645,0.000053\H,3.993633,0.412644,0.000053\H,3.
 18232,-1.250111,0.000025\H,1.805511,1.508224,-0.00001\\Version=EM64L-G
 09RevA.01\State=1-A\HF=-233.3985664\RMSD=2.345e-09\RMSF=2.355e-02\Dipo
 le=-0.0000004,0.0000003,0.0000019\PG=C01 [X(C6H8)]\\@


 AN AIRPLANE IS A COLLECTION OF SPARE PARTS
 FLYING IN CLOSE FORMATION.
 Job cpu time:  0 days  0 hours  3 minutes 22.6 seconds.
 File lengths (MBytes):  RWF=     26 Int=      0 D2E=      0 Chk=      3 Scr=      1
 Normal termination of Gaussian 09 at Thu Oct  3 21:20:33 2019.
