Title                                                                   
Force     RTD-CAM-B3LYP-FC                                            6-31G(d,p)          
Number of atoms                            I                6
Info1-9                                    I   N=           9
          14          14           0           0           0         100
           5         218           1
Charge                                     I                0
Multiplicity                               I                1
Number of electrons                        I               24
Number of alpha electrons                  I               12
Number of beta electrons                   I               12
Number of basis functions                  I               60
Number of independent functions            I               60
Number of point charges in /Mol/           I                0
Number of translation vectors              I                0
Atomic numbers                             I   N=           6
           6           7           8           1           1           1
Nuclear charges                            R   N=           6
  6.00000000E+00  7.00000000E+00  8.00000000E+00  1.00000000E+00  1.00000000E+00
  1.00000000E+00
Current cartesian coordinates              R   N=          18
 -3.03745130E-01  7.32622255E-01  1.56847269E-04  2.04278450E+00 -2.99007587E-01
 -6.99198669E-05 -2.25519539E+00 -4.63574387E-01 -1.24721925E-04  2.20853238E+00
 -2.19683875E+00  1.96531518E-04  3.60789348E+00  7.78918656E-01  4.23298654E-04
 -2.51870258E-01  2.82383666E+00 -8.31479498E-05
Force Field                                I                0
Int Atom Types                             I   N=           6
           0           0           0           0           0           0
MM charges                                 R   N=           6
  0.00000000E+00  0.00000000E+00  0.00000000E+00  0.00000000E+00  0.00000000E+00
  0.00000000E+00
Integer atomic weights                     I   N=           6
          12          14          16           1           1           1
Real atomic weights                        R   N=           6
  1.20000000E+01  1.40030740E+01  1.59949146E+01  1.00782504E+00  1.00782504E+00
  1.00782504E+00
Atom fragment info                         I   N=           6
           0           0           0           0           0           0
Atom residue num                           I   N=           6
           0           0           0           0           0           0
Nuclear spins                              I   N=           6
           0           2           0           1           1           1
Nuclear ZEff                               R   N=           6
 -3.60000000E+00 -4.55000000E+00 -5.60000000E+00 -1.00000000E+00 -1.00000000E+00
 -1.00000000E+00
Nuclear QMom                               R   N=           6
  0.00000000E+00  2.04400000E+00  0.00000000E+00  0.00000000E+00  0.00000000E+00
  0.00000000E+00
Nuclear GFac                               R   N=           6
  0.00000000E+00  4.03761000E-01  0.00000000E+00  2.79284600E+00  2.79284600E+00
  2.79284600E+00
MicOpt                                     I   N=           6
          -1          -1          -1          -1          -1          -1
Number of contracted shells                I               21
Number of primitive shells                 I               48
Pure/Cartesian d shells                    I                1
Pure/Cartesian f shells                    I                0
Highest angular momentum                   I                2
Largest degree of contraction              I                6
Shell types                                I   N=          21
           0          -1          -1           2           0          -1
          -1           2           0          -1          -1           2
           0           0           1           0           0           1
           0           0           1
Number of primitives per shell             I   N=          21
           6           3           1           1           6           3
           1           1           6           3           1           1
           3           1           1           3           1           1
           3           1           1
Shell to atom map                          I   N=          21
           1           1           1           1           2           2
           2           2           3           3           3           3
           4           4           4           5           5           5
           6           6           6
Primitive exponents                        R   N=          48
  3.04752488E+03  4.57369518E+02  1.03948685E+02  2.92101553E+01  9.28666296E+00
  3.16392696E+00  7.86827235E+00  1.88128854E+00  5.44249258E-01  1.68714478E-01
  8.00000000E-01  4.17351146E+03  6.27457911E+02  1.42902093E+02  4.02343293E+01
  1.28202129E+01  4.39043701E+00  1.16263619E+01  2.71627981E+00  7.72218397E-01
  2.12031498E-01  8.00000000E-01  5.48467166E+03  8.25234946E+02  1.88046958E+02
  5.29645000E+01  1.68975704E+01  5.79963534E+00  1.55396162E+01  3.59993359E+00
  1.01376175E+00  2.70005823E-01  8.00000000E-01  1.87311370E+01  2.82539436E+00
  6.40121692E-01  1.61277759E-01  1.10000000E+00  1.87311370E+01  2.82539436E+00
  6.40121692E-01  1.61277759E-01  1.10000000E+00  1.87311370E+01  2.82539436E+00
  6.40121692E-01  1.61277759E-01  1.10000000E+00
Contraction coefficients                   R   N=          48
  1.83473713E-03  1.40373228E-02  6.88426223E-02  2.32184443E-01  4.67941348E-01
  3.62311985E-01 -1.19332420E-01 -1.60854152E-01  1.14345644E+00  1.00000000E+00
  1.00000000E+00  1.83477216E-03  1.39946270E-02  6.85865518E-02  2.32240873E-01
  4.69069948E-01  3.60455199E-01 -1.14961182E-01 -1.69117479E-01  1.14585195E+00
  1.00000000E+00  1.00000000E+00  1.83107443E-03  1.39501722E-02  6.84450781E-02
  2.32714336E-01  4.70192898E-01  3.58520853E-01 -1.10777550E-01 -1.48026263E-01
  1.13076702E+00  1.00000000E+00  1.00000000E+00  3.34946043E-02  2.34726953E-01
  8.13757326E-01  1.00000000E+00  1.00000000E+00  3.34946043E-02  2.34726953E-01
  8.13757326E-01  1.00000000E+00  1.00000000E+00  3.34946043E-02  2.34726953E-01
  8.13757326E-01  1.00000000E+00  1.00000000E+00
P(S=P) Contraction coefficients            R   N=          48
  0.00000000E+00  0.00000000E+00  0.00000000E+00  0.00000000E+00  0.00000000E+00
  0.00000000E+00  6.89990666E-02  3.16423961E-01  7.44308291E-01  1.00000000E+00
  0.00000000E+00  0.00000000E+00  0.00000000E+00  0.00000000E+00  0.00000000E+00
  0.00000000E+00  0.00000000E+00  6.75797439E-02  3.23907296E-01  7.40895140E-01
  1.00000000E+00  0.00000000E+00  0.00000000E+00  0.00000000E+00  0.00000000E+00
  0.00000000E+00  0.00000000E+00  0.00000000E+00  7.08742682E-02  3.39752839E-01
  7.27158577E-01  1.00000000E+00  0.00000000E+00  0.00000000E+00  0.00000000E+00
  0.00000000E+00  0.00000000E+00  0.00000000E+00  0.00000000E+00  0.00000000E+00
  0.00000000E+00  0.00000000E+00  0.00000000E+00  0.00000000E+00  0.00000000E+00
  0.00000000E+00  0.00000000E+00  0.00000000E+00
Coordinates of each shell                  R   N=          63
 -3.03745130E-01  7.32622255E-01  1.56847269E-04 -3.03745130E-01  7.32622255E-01
  1.56847269E-04 -3.03745130E-01  7.32622255E-01  1.56847269E-04 -3.03745130E-01
  7.32622255E-01  1.56847269E-04  2.04278450E+00 -2.99007587E-01 -6.99198669E-05
  2.04278450E+00 -2.99007587E-01 -6.99198669E-05  2.04278450E+00 -2.99007587E-01
 -6.99198669E-05  2.04278450E+00 -2.99007587E-01 -6.99198669E-05 -2.25519539E+00
 -4.63574387E-01 -1.24721925E-04 -2.25519539E+00 -4.63574387E-01 -1.24721925E-04
 -2.25519539E+00 -4.63574387E-01 -1.24721925E-04 -2.25519539E+00 -4.63574387E-01
 -1.24721925E-04  2.20853238E+00 -2.19683875E+00  1.96531518E-04  2.20853238E+00
 -2.19683875E+00  1.96531518E-04  2.20853238E+00 -2.19683875E+00  1.96531518E-04
  3.60789348E+00  7.78918656E-01  4.23298654E-04  3.60789348E+00  7.78918656E-01
  4.23298654E-04  3.60789348E+00  7.78918656E-01  4.23298654E-04 -2.51870258E-01
  2.82383666E+00 -8.31479498E-05 -2.51870258E-01  2.82383666E+00 -8.31479498E-05
 -2.51870258E-01  2.82383666E+00 -8.31479498E-05
Density Number of contracted shells        I               72
Density Number of primitive shells         I               72
Density Pure/Cartesian d shells            I                0
Density Pure/Cartesian f shells            I                0
Density Highest angular momentum           I                3
Density Largest degree of contraction      I                1
Density Shell types                        I   N=          72
           0           0           0           0          -1          -2
          -1          -2          -1          -2          -1          -2
          -3          -1          -2          -3           0           0
           0           0          -1          -2          -1          -2
          -1          -2          -1          -2          -3          -1
          -2          -3           0           0           0           0
          -1          -2          -1          -2          -1          -2
          -1          -2          -3          -1          -2          -3
           0           0          -1          -2          -1          -2
          -1          -2           0           0          -1          -2
          -1          -2          -1          -2           0           0
          -1          -2          -1          -2          -1          -2
Density Number of primitives per shell     I   N=          72
           1           1           1           1           1           1
           1           1           1           1           1           1
           1           1           1           1           1           1
           1           1           1           1           1           1
           1           1           1           1           1           1
           1           1           1           1           1           1
           1           1           1           1           1           1
           1           1           1           1           1           1
           1           1           1           1           1           1
           1           1           1           1           1           1
           1           1           1           1           1           1
           1           1           1           1           1           1
Density Shell to atom map                  I   N=          72
           1           1           1           1           1           1
           1           1           1           1           1           1
           1           1           1           1           2           2
           2           2           2           2           2           2
           2           2           2           2           2           2
           2           2           3           3           3           3
           3           3           3           3           3           3
           3           3           3           3           3           3
           4           4           4           4           4           4
           4           4           5           5           5           5
           5           5           5           5           6           6
           6           6           6           6           6           6
Density Primitive exponents                R   N=          72
  6.09504976E+03  9.14739036E+02  2.07897370E+02  5.84203106E+01  1.70961976E+01
  1.70961976E+01  6.32785392E+00  6.32785392E+00  3.76257708E+00  3.76257708E+00
  1.31969604E+00  1.31969604E+00  1.31969604E+00  3.37428956E-01  3.37428956E-01
  3.37428956E-01  8.34702292E+03  1.25491582E+03  2.85804186E+02  8.04686586E+01
  2.44174064E+01  2.44174064E+01  8.78087402E+00  8.78087402E+00  5.43255961E+00
  5.43255961E+00  1.57197292E+00  1.57197292E+00  1.57197292E+00  4.24062995E-01
  4.24062995E-01  4.24062995E-01  1.09693433E+04  1.65046989E+03  3.76093916E+02
  1.05929000E+02  3.24087494E+01  3.24087494E+01  1.15992707E+01  1.15992707E+01
  7.19986717E+00  7.19986717E+00  1.80112121E+00  1.80112121E+00  1.80112121E+00
  5.40011645E-01  5.40011645E-01  5.40011645E-01  3.74622739E+01  5.65078873E+00
  2.20000000E+00  2.20000000E+00  1.28024338E+00  1.28024338E+00  3.22555518E-01
  3.22555518E-01  3.74622739E+01  5.65078873E+00  2.20000000E+00  2.20000000E+00
  1.28024338E+00  1.28024338E+00  3.22555518E-01  3.22555518E-01  3.74622739E+01
  5.65078873E+00  2.20000000E+00  2.20000000E+00  1.28024338E+00  1.28024338E+00
  3.22555518E-01  3.22555518E-01
Density Contraction coefficients           R   N=          72
  1.00000000E+00  1.00000000E+00  1.00000000E+00  1.00000000E+00  1.00000000E+00
  1.00000000E+00  1.00000000E+00  1.00000000E+00  1.00000000E+00  1.00000000E+00
  1.00000000E+00  1.00000000E+00  1.00000000E+00  1.00000000E+00  1.00000000E+00
  1.00000000E+00  1.00000000E+00  1.00000000E+00  1.00000000E+00  1.00000000E+00
  1.00000000E+00  1.00000000E+00  1.00000000E+00  1.00000000E+00  1.00000000E+00
  1.00000000E+00  1.00000000E+00  1.00000000E+00  1.00000000E+00  1.00000000E+00
  1.00000000E+00  1.00000000E+00  1.00000000E+00  1.00000000E+00  1.00000000E+00
  1.00000000E+00  1.00000000E+00  1.00000000E+00  1.00000000E+00  1.00000000E+00
  1.00000000E+00  1.00000000E+00  1.00000000E+00  1.00000000E+00  1.00000000E+00
  1.00000000E+00  1.00000000E+00  1.00000000E+00  1.00000000E+00  1.00000000E+00
  1.00000000E+00  1.00000000E+00  1.00000000E+00  1.00000000E+00  1.00000000E+00
  1.00000000E+00  1.00000000E+00  1.00000000E+00  1.00000000E+00  1.00000000E+00
  1.00000000E+00  1.00000000E+00  1.00000000E+00  1.00000000E+00  1.00000000E+00
  1.00000000E+00  1.00000000E+00  1.00000000E+00  1.00000000E+00  1.00000000E+00
  1.00000000E+00  1.00000000E+00
Density P(S=P) Contraction coefficients    R   N=          72
  0.00000000E+00  0.00000000E+00  0.00000000E+00  0.00000000E+00  1.00000000E+00
  0.00000000E+00  1.00000000E+00  0.00000000E+00  1.00000000E+00  0.00000000E+00
  1.00000000E+00  0.00000000E+00  0.00000000E+00  1.00000000E+00  0.00000000E+00
  0.00000000E+00  0.00000000E+00  0.00000000E+00  0.00000000E+00  0.00000000E+00
  1.00000000E+00  0.00000000E+00  1.00000000E+00  0.00000000E+00  1.00000000E+00
  0.00000000E+00  1.00000000E+00  0.00000000E+00  0.00000000E+00  1.00000000E+00
  0.00000000E+00  0.00000000E+00  0.00000000E+00  0.00000000E+00  0.00000000E+00
  0.00000000E+00  1.00000000E+00  0.00000000E+00  1.00000000E+00  0.00000000E+00
  1.00000000E+00  0.00000000E+00  1.00000000E+00  0.00000000E+00  0.00000000E+00
  1.00000000E+00  0.00000000E+00  0.00000000E+00  0.00000000E+00  0.00000000E+00
  1.00000000E+00  0.00000000E+00  1.00000000E+00  0.00000000E+00  1.00000000E+00
  0.00000000E+00  0.00000000E+00  0.00000000E+00  1.00000000E+00  0.00000000E+00
  1.00000000E+00  0.00000000E+00  1.00000000E+00  0.00000000E+00  0.00000000E+00
  0.00000000E+00  1.00000000E+00  0.00000000E+00  1.00000000E+00  0.00000000E+00
  1.00000000E+00  0.00000000E+00
Density Coordinates of each shell          R   N=         216
 -3.03745130E-01  7.32622255E-01  1.56847269E-04 -3.03745130E-01  7.32622255E-01
  1.56847269E-04 -3.03745130E-01  7.32622255E-01  1.56847269E-04 -3.03745130E-01
  7.32622255E-01  1.56847269E-04 -3.03745130E-01  7.32622255E-01  1.56847269E-04
 -3.03745130E-01  7.32622255E-01  1.56847269E-04 -3.03745130E-01  7.32622255E-01
  1.56847269E-04 -3.03745130E-01  7.32622255E-01  1.56847269E-04 -3.03745130E-01
  7.32622255E-01  1.56847269E-04 -3.03745130E-01  7.32622255E-01  1.56847269E-04
 -3.03745130E-01  7.32622255E-01  1.56847269E-04 -3.03745130E-01  7.32622255E-01
  1.56847269E-04 -3.03745130E-01  7.32622255E-01  1.56847269E-04 -3.03745130E-01
  7.32622255E-01  1.56847269E-04 -3.03745130E-01  7.32622255E-01  1.56847269E-04
 -3.03745130E-01  7.32622255E-01  1.56847269E-04  2.04278450E+00 -2.99007587E-01
 -6.99198669E-05  2.04278450E+00 -2.99007587E-01 -6.99198669E-05  2.04278450E+00
 -2.99007587E-01 -6.99198669E-05  2.04278450E+00 -2.99007587E-01 -6.99198669E-05
  2.04278450E+00 -2.99007587E-01 -6.99198669E-05  2.04278450E+00 -2.99007587E-01
 -6.99198669E-05  2.04278450E+00 -2.99007587E-01 -6.99198669E-05  2.04278450E+00
 -2.99007587E-01 -6.99198669E-05  2.04278450E+00 -2.99007587E-01 -6.99198669E-05
  2.04278450E+00 -2.99007587E-01 -6.99198669E-05  2.04278450E+00 -2.99007587E-01
 -6.99198669E-05  2.04278450E+00 -2.99007587E-01 -6.99198669E-05  2.04278450E+00
 -2.99007587E-01 -6.99198669E-05  2.04278450E+00 -2.99007587E-01 -6.99198669E-05
  2.04278450E+00 -2.99007587E-01 -6.99198669E-05  2.04278450E+00 -2.99007587E-01
 -6.99198669E-05 -2.25519539E+00 -4.63574387E-01 -1.24721925E-04 -2.25519539E+00
 -4.63574387E-01 -1.24721925E-04 -2.25519539E+00 -4.63574387E-01 -1.24721925E-04
 -2.25519539E+00 -4.63574387E-01 -1.24721925E-04 -2.25519539E+00 -4.63574387E-01
 -1.24721925E-04 -2.25519539E+00 -4.63574387E-01 -1.24721925E-04 -2.25519539E+00
 -4.63574387E-01 -1.24721925E-04 -2.25519539E+00 -4.63574387E-01 -1.24721925E-04
 -2.25519539E+00 -4.63574387E-01 -1.24721925E-04 -2.25519539E+00 -4.63574387E-01
 -1.24721925E-04 -2.25519539E+00 -4.63574387E-01 -1.24721925E-04 -2.25519539E+00
 -4.63574387E-01 -1.24721925E-04 -2.25519539E+00 -4.63574387E-01 -1.24721925E-04
 -2.25519539E+00 -4.63574387E-01 -1.24721925E-04 -2.25519539E+00 -4.63574387E-01
 -1.24721925E-04 -2.25519539E+00 -4.63574387E-01 -1.24721925E-04  2.20853238E+00
 -2.19683875E+00  1.96531518E-04  2.20853238E+00 -2.19683875E+00  1.96531518E-04
  2.20853238E+00 -2.19683875E+00  1.96531518E-04  2.20853238E+00 -2.19683875E+00
  1.96531518E-04  2.20853238E+00 -2.19683875E+00  1.96531518E-04  2.20853238E+00
 -2.19683875E+00  1.96531518E-04  2.20853238E+00 -2.19683875E+00  1.96531518E-04
  2.20853238E+00 -2.19683875E+00  1.96531518E-04  3.60789348E+00  7.78918656E-01
  4.23298654E-04  3.60789348E+00  7.78918656E-01  4.23298654E-04  3.60789348E+00
  7.78918656E-01  4.23298654E-04  3.60789348E+00  7.78918656E-01  4.23298654E-04
  3.60789348E+00  7.78918656E-01  4.23298654E-04  3.60789348E+00  7.78918656E-01
  4.23298654E-04  3.60789348E+00  7.78918656E-01  4.23298654E-04  3.60789348E+00
  7.78918656E-01  4.23298654E-04 -2.51870258E-01  2.82383666E+00 -8.31479498E-05
 -2.51870258E-01  2.82383666E+00 -8.31479498E-05 -2.51870258E-01  2.82383666E+00
 -8.31479498E-05 -2.51870258E-01  2.82383666E+00 -8.31479498E-05 -2.51870258E-01
  2.82383666E+00 -8.31479498E-05 -2.51870258E-01  2.82383666E+00 -8.31479498E-05
 -2.51870258E-01  2.82383666E+00 -8.31479498E-05 -2.51870258E-01  2.82383666E+00
 -8.31479498E-05
Constraint Structure                       R   N=          18
 -3.03745130E-01  7.32622255E-01  1.56847269E-04  2.04278450E+00 -2.99007587E-01
 -6.99198669E-05 -2.25519539E+00 -4.63574387E-01 -1.24721925E-04  2.20853238E+00
 -2.19683875E+00  1.96531518E-04  3.60789348E+00  7.78918656E-01  4.23298654E-04
 -2.51870258E-01  2.82383666E+00 -8.31479498E-05
Num ILSW                                   I              100
ILSW                                       I   N=         100
           0           1           0           0           2           0
           0           0           0           0       20419          -1
           0           0           0           0           0           0
           0           0           1           0           1           0
           1           1           0           0           0           0
           0           0      100000           0          -1           0
           0           0           0           0           0           0
           0           0           0           1           0           0
           0           0           1           0           0           0
           0           0           4          40           0           0
           0           0          40           0           0           0
           0           0           0           0           0           0
           0           0           0           0           0           0
           0           0           0           0           0           0
           0           0           0           0           0           0
           0           0           0           0           0           0
           0           0           0           0
Num RLSW                                   I               40
RLSW                                       R   N=          40
  1.00000000E+00  1.00000000E+00  1.00000000E+00  8.10000000E-01  1.00000000E+00
  0.00000000E+00  3.30000000E-01  1.90000000E-01  0.00000000E+00  4.60000000E-01
  0.00000000E+00  3.30000000E-01  1.90000000E-01  0.00000000E+00  4.60000000E-01
  0.00000000E+00  0.00000000E+00  1.00000000E+00  0.00000000E+00  0.00000000E+00
  0.00000000E+00  0.00000000E+00  1.00000000E+00  0.00000000E+00  0.00000000E+00
  0.00000000E+00  0.00000000E+00  1.00000000E+00  0.00000000E+00  0.00000000E+00
  0.00000000E+00  0.00000000E+00  0.00000000E+00  0.00000000E+00  0.00000000E+00
  0.00000000E+00  0.00000000E+00  0.00000000E+00  1.00000000E+00  1.00000000E+00
MxBond                                     I                3
NBond                                      I   N=           6
           3           3           1           1           1           1
IBond                                      I   N=          18
           2           3           6           1           4           5
           1           0           0           2           0           0
           2           0           0           1           0           0
RBond                                      R   N=          18
  1.41000000E+00  2.00000000E+00  1.00000000E+00  1.41000000E+00  1.00000000E+00
  1.00000000E+00  2.00000000E+00  0.00000000E+00  0.00000000E+00  1.00000000E+00
  0.00000000E+00  0.00000000E+00  1.00000000E+00  0.00000000E+00  0.00000000E+00
  1.00000000E+00  0.00000000E+00  0.00000000E+00
Virial Ratio                               R      2.008688763657139E+00
SCF Energy                                 R     -1.698232498120852E+02
CIS Energy                                 R     -1.696114513902470E+02
Total Energy                               R     -1.696114513902470E+02
Post-SCF wavefunction norm                 R      1.000000000000000E+00
RMS Force                                  R      5.893204498232448E-02
RMS Density                                R      2.248351644506556E-09
External E-field                           R   N=          35
  0.00000000E+00  0.00000000E+00  0.00000000E+00  0.00000000E+00  0.00000000E+00
  0.00000000E+00  0.00000000E+00  0.00000000E+00  0.00000000E+00  0.00000000E+00
  0.00000000E+00  0.00000000E+00  0.00000000E+00  0.00000000E+00  0.00000000E+00
  0.00000000E+00  0.00000000E+00  0.00000000E+00  0.00000000E+00  0.00000000E+00
  0.00000000E+00  0.00000000E+00  0.00000000E+00  0.00000000E+00  0.00000000E+00
  0.00000000E+00  0.00000000E+00  0.00000000E+00  0.00000000E+00  0.00000000E+00
  0.00000000E+00  0.00000000E+00  0.00000000E+00  0.00000000E+00  0.00000000E+00
IOpCl                                      I                0
IROHF                                      I                0
Alpha Orbital Energies                     R   N=          60
 -1.91876395E+01 -1.44354368E+01 -1.03638357E+01 -1.11401322E+00 -9.88553960E-01
 -6.98820698E-01 -6.26853300E-01 -5.46749745E-01 -4.76971740E-01 -4.72435471E-01
 -3.33762843E-01 -3.18131470E-01  8.77493902E-02  1.25559470E-01  1.62023703E-01
  2.18660193E-01  3.20976865E-01  4.05528153E-01  5.92075508E-01  6.02353878E-01
  7.08668026E-01  7.40759779E-01  7.61542744E-01  7.77057867E-01  8.90063057E-01
  9.05573319E-01  9.12680597E-01  9.31200282E-01  1.07148579E+00  1.14102483E+00
  1.27511757E+00  1.34802374E+00  1.39837398E+00  1.45294419E+00  1.56875689E+00
  1.57867714E+00  1.83112726E+00  1.89602633E+00  1.91622090E+00  2.05033890E+00
  2.08384535E+00  2.14773497E+00  2.19328605E+00  2.20772756E+00  2.34490811E+00
  2.43842721E+00  2.56848929E+00  2.59257883E+00  2.69413050E+00  2.82657942E+00
  2.83743901E+00  2.93605858E+00  3.07098851E+00  3.09250597E+00  3.32120816E+00
  3.52845546E+00  3.72562636E+00  3.93855407E+00  4.03093523E+00  4.45557909E+00
Alpha MO coefficients                      R   N=        3600
  1.54422942E-05  5.52004707E-04  5.88188650E-05 -1.39639962E-05  1.32883497E-08
 -2.76098513E-03  2.04167396E-03  1.86892135E-03  2.34585485E-07 -6.83861137E-04
 -2.39033118E-04 -6.10387755E-06 -4.71442757E-04 -1.06458433E-07 -8.04021656E-08
 -6.96802381E-06  1.79608335E-07 -1.32889506E-05  4.27092365E-05  4.81401168E-09
  1.96275263E-04 -2.71971809E-04 -6.96536583E-04 -2.90973083E-08 -1.49164060E-04
  1.02933569E-04 -1.84933734E-05 -1.41664621E-04 -4.38290387E-08 -2.67781107E-08
  9.92816268E-01  2.57850800E-02  1.08938790E-03  6.33134724E-04  1.73861826E-07
  1.29408705E-02  1.20707851E-03  6.38856981E-04  2.04672360E-07 -7.54057853E-03
 -7.79842125E-03 -7.94340201E-03  2.66920374E-04  7.63119792E-08  3.85558763E-08
 -1.72938858E-04 -2.71080333E-04 -3.66059463E-05 -8.11093854E-05  3.57191968E-08
  1.89947111E-04  9.34935511E-06 -8.06003931E-06 -6.59442861E-05 -4.53996754E-08
 -3.95983301E-05 -5.82552591E-04  1.41253517E-05  3.19798347E-05 -1.13031270E-08
  3.81493988E-05  2.30454657E-04  3.10037752E-04 -1.47496272E-04 -5.35967987E-08
 -3.85865237E-04 -9.78571401E-05 -1.81637862E-06  9.11621044E-08  1.12698500E-04
  9.44952156E-05 -1.46341275E-05 -2.29707581E-05 -2.58594850E-08  1.04791012E-08
  9.92628513E-01  3.48333509E-02  1.26010920E-04 -3.59220872E-06  5.76643222E-07
  4.21259287E-03  6.45802709E-05 -4.23254494E-05 -1.68465810E-07 -8.35128361E-03
 -8.28273557E-03 -8.35689897E-03  5.55948852E-05  3.42352567E-08 -1.19429538E-09
  3.57823494E-06  2.04991895E-05 -3.04789531E-05 -2.84243821E-06 -4.39818309E-09
 -3.30127927E-05 -9.51000092E-05  3.62628687E-05 -1.73619986E-08 -9.65929961E-05
  2.78049753E-05  4.62674738E-06  6.22609026E-06 -6.31566723E-09 -5.13349866E-09
  3.04031148E-04 -5.36741227E-04  5.74065626E-06 -3.25645060E-05 -7.18286398E-09
  2.88501337E-04 -5.34034257E-04  4.85001177E-05  3.10969878E-05  1.43369954E-09
 -5.21488257E-05  1.71276941E-05 -5.16486127E-05  6.45311944E-05 -7.40424590E-09
  9.92765047E-01  4.83719289E-02 -4.99937452E-05 -5.57832426E-04 -1.84490121E-07
 -6.52277682E-03 -2.05471104E-03 -2.41565406E-03  2.37458376E-07 -8.47360528E-03
 -9.07289406E-03 -9.87154605E-03  3.09085008E-04  5.59374683E-08  7.58733467E-08
 -2.10109614E-04 -7.57821616E-05  2.08590950E-04 -1.63345508E-04 -6.19953988E-08
  1.36775375E-03  5.03649998E-04  1.00041729E-03 -1.02001523E-07 -6.82809455E-04
 -4.89619523E-04 -8.57509281E-06  2.02148574E-04  9.82329392E-08  2.61763393E-09
 -1.51331034E-04  4.42317082E-04  4.18812289E-05  1.04710307E-05  3.29734447E-08
 -3.13081847E-03 -1.78646320E-03 -8.94063640E-04 -4.87999461E-07 -1.29091992E-04
  1.51240196E-04  3.94784616E-04 -2.40051802E-04 -1.45645902E-07 -7.61874587E-08
  2.97046649E-04  4.43071028E-04 -1.17629936E-04  2.32947257E-04 -4.05353644E-08
 -1.07078227E-04 -1.48626083E-04 -2.10130024E-04 -9.77518411E-06  3.19443873E-09
 -3.06182206E-04  2.78828088E-03  6.68433988E-05  1.66047015E-04 -3.42514585E-08
 -1.32492869E-01  2.59869443E-01 -1.09389693E-01 -1.08091914E-01 -2.43721104E-05
  7.52551030E-02  8.90480773E-03  2.79063145E-02  3.42198329E-06  1.14068115E-02
 -1.10704856E-02 -2.24812139E-02  1.76167180E-02  4.32130272E-06  3.22192091E-06
 -6.30321841E-02  1.27985340E-01 -4.67476292E-02  9.08289438E-03  1.11769089E-05
  1.19684944E-01 -2.59360411E-02 -2.07052906E-03  4.37295630E-06  7.71928052E-03
 -2.89809909E-03 -6.30541462E-03 -3.08803513E-03 -1.20487857E-06  1.20489984E-07
 -1.78315385E-01  3.83561314E-01  1.35449382E-01  7.62952065E-02  1.82592252E-05
  3.60658974E-01  4.83231870E-02  2.14917680E-02  6.52334173E-06  5.77820756E-03
 -6.17877724E-03 -7.86421346E-03  1.00979584E-02  2.62980935E-06  1.19704331E-06
  3.24867936E-02  2.84576372E-03 -1.42839514E-03  4.95492598E-03 -4.70651769E-07
  2.83612686E-02  2.53177711E-03 -3.11986715E-03 -1.90859319E-03 -7.70056991E-07
  3.47984159E-02 -1.05161153E-02 -1.49140455E-03 -7.09010940E-03  2.66738683E-07
 -3.28239273E-02  6.64631805E-02  2.15010657E-01  3.64133355E-03  4.35977156E-06
  5.21761231E-03  2.33120110E-03  1.31128713E-02  1.97765409E-06  6.84194943E-03
 -2.37277316E-03 -3.10829427E-03 -2.27061133E-02 -4.22146749E-06 -9.81349892E-07
 -1.89567433E-01  3.90154737E-01 -1.73670954E-02  2.14011530E-02  4.37137918E-05
  4.00934987E-01 -1.12102276E-02  1.22505318E-02  2.05105399E-05 -3.57402345E-03
 -4.12490260E-03 -1.71454743E-02 -2.67863642E-03  1.50974637E-07  1.36061750E-06
  8.59821422E-02 -1.89930789E-01 -3.48937383E-02 -3.91634823E-02 -8.92657962E-06
 -1.72704969E-01 -1.16876432E-03 -1.07322597E-02 -2.15429074E-06  2.39882724E-03
 -1.37797062E-04  2.05209529E-03 -2.77222964E-03 -6.26943741E-07 -8.98461756E-07
  1.16913549E-01  1.31619473E-02 -1.23908715E-03  1.59321362E-02 -1.38550109E-06
  1.26704982E-01  1.70164775E-02 -1.43262256E-02 -9.31893915E-03 -3.65711369E-06
  1.97173766E-02  2.67898833E-03  2.13055594E-03 -1.90093144E-03  2.33201959E-07
 -1.32626666E-01  2.86878585E-01  1.59715668E-01  1.37827047E-01 -1.97295386E-05
  2.08050820E-01  5.30375570E-02  6.14675460E-02  4.02591575E-06 -9.57988261E-03
 -5.28641976E-03 -1.31635847E-02 -7.08360122E-03 -3.66135232E-06 -1.72152359E-06
  4.67174331E-02 -9.98384513E-02 -2.47632254E-01  2.27431148E-01 -2.67030557E-05
 -1.37729755E-01 -1.05359716E-01  9.17231275E-02 -1.59279736E-05  7.57611904E-03
 -2.88245230E-03  3.63531749E-03 -1.12107850E-02 -6.38755259E-06  4.78202724E-06
  6.16529963E-02 -1.42789517E-01  3.72371130E-02  4.77514107E-02 -6.14944502E-06
 -1.50078651E-01  3.36009121E-02  3.12314989E-02 -1.11425845E-06  5.16093798E-03
  2.97756524E-03 -1.47776315E-03  6.55303058E-03 -1.88655743E-07  1.95454596E-08
 -1.68141250E-01 -7.15341627E-02 -3.80801938E-03 -1.23197486E-02  1.95090712E-06