Title                                                                   
Force     RTD-CAM-B3LYP-FC                                            6-31G(d)            
Number of atoms                            I                6
Info1-9                                    I   N=           9
          14          14           0           0           0         100
           5         218           1
Charge                                     I                0
Multiplicity                               I                1
Number of electrons                        I               24
Number of alpha electrons                  I               12
Number of beta electrons                   I               12
Number of basis functions                  I               51
Number of independent functions            I               51
Number of point charges in /Mol/           I                0
Number of translation vectors              I                0
Atomic numbers                             I   N=           6
           6           7           8           1           1           1
Nuclear charges                            R   N=           6
  6.00000000E+00  7.00000000E+00  8.00000000E+00  1.00000000E+00  1.00000000E+00
  1.00000000E+00
Current cartesian coordinates              R   N=          18
 -3.05101953E-01  7.31369367E-01 -1.88972613E-04  2.04417912E+00 -2.97541159E-01
 -1.43619186E-04 -2.25718149E+00 -4.63676432E-01  1.28501377E-04  2.21969310E+00
 -2.19730552E+00  3.60937691E-04  3.61341337E+00  7.79997689E-01  6.06602089E-04
 -2.54296666E-01  2.82129498E+00  1.49288364E-04
Force Field                                I                0
Int Atom Types                             I   N=           6
           0           0           0           0           0           0
MM charges                                 R   N=           6
  0.00000000E+00  0.00000000E+00  0.00000000E+00  0.00000000E+00  0.00000000E+00
  0.00000000E+00
Integer atomic weights                     I   N=           6
          12          14          16           1           1           1
Real atomic weights                        R   N=           6
  1.20000000E+01  1.40030740E+01  1.59949146E+01  1.00782504E+00  1.00782504E+00
  1.00782504E+00
Atom fragment info                         I   N=           6
           0           0           0           0           0           0
Atom residue num                           I   N=           6
           0           0           0           0           0           0
Nuclear spins                              I   N=           6
           0           2           0           1           1           1
Nuclear ZEff                               R   N=           6
 -3.60000000E+00 -4.55000000E+00 -5.60000000E+00 -1.00000000E+00 -1.00000000E+00
 -1.00000000E+00
Nuclear QMom                               R   N=           6
  0.00000000E+00  2.04400000E+00  0.00000000E+00  0.00000000E+00  0.00000000E+00
  0.00000000E+00
Nuclear GFac                               R   N=           6
  0.00000000E+00  4.03761000E-01  0.00000000E+00  2.79284600E+00  2.79284600E+00
  2.79284600E+00
MicOpt                                     I   N=           6
          -1          -1          -1          -1          -1          -1
Number of contracted shells                I               18
Number of primitive shells                 I               45
Pure/Cartesian d shells                    I                1
Pure/Cartesian f shells                    I                0
Highest angular momentum                   I                2
Largest degree of contraction              I                6
Shell types                                I   N=          18
           0          -1          -1           2           0          -1
          -1           2           0          -1          -1           2
           0           0           0           0           0           0
Number of primitives per shell             I   N=          18
           6           3           1           1           6           3
           1           1           6           3           1           1
           3           1           3           1           3           1
Shell to atom map                          I   N=          18
           1           1           1           1           2           2
           2           2           3           3           3           3
           4           4           5           5           6           6
Primitive exponents                        R   N=          45
  3.04752488E+03  4.57369518E+02  1.03948685E+02  2.92101553E+01  9.28666296E+00
  3.16392696E+00  7.86827235E+00  1.88128854E+00  5.44249258E-01  1.68714478E-01
  8.00000000E-01  4.17351146E+03  6.27457911E+02  1.42902093E+02  4.02343293E+01
  1.28202129E+01  4.39043701E+00  1.16263619E+01  2.71627981E+00  7.72218397E-01
  2.12031498E-01  8.00000000E-01  5.48467166E+03  8.25234946E+02  1.88046958E+02
  5.29645000E+01  1.68975704E+01  5.79963534E+00  1.55396162E+01  3.59993359E+00
  1.01376175E+00  2.70005823E-01  8.00000000E-01  1.87311370E+01  2.82539436E+00
  6.40121692E-01  1.61277759E-01  1.87311370E+01  2.82539436E+00  6.40121692E-01
  1.61277759E-01  1.87311370E+01  2.82539436E+00  6.40121692E-01  1.61277759E-01
Contraction coefficients                   R   N=          45
  1.83473713E-03  1.40373228E-02  6.88426223E-02  2.32184443E-01  4.67941348E-01
  3.62311985E-01 -1.19332420E-01 -1.60854152E-01  1.14345644E+00  1.00000000E+00
  1.00000000E+00  1.83477216E-03  1.39946270E-02  6.85865518E-02  2.32240873E-01
  4.69069948E-01  3.60455199E-01 -1.14961182E-01 -1.69117479E-01  1.14585195E+00
  1.00000000E+00  1.00000000E+00  1.83107443E-03  1.39501722E-02  6.84450781E-02
  2.32714336E-01  4.70192898E-01  3.58520853E-01 -1.10777550E-01 -1.48026263E-01
  1.13076702E+00  1.00000000E+00  1.00000000E+00  3.34946043E-02  2.34726953E-01
  8.13757326E-01  1.00000000E+00  3.34946043E-02  2.34726953E-01  8.13757326E-01
  1.00000000E+00  3.34946043E-02  2.34726953E-01  8.13757326E-01  1.00000000E+00
P(S=P) Contraction coefficients            R   N=          45
  0.00000000E+00  0.00000000E+00  0.00000000E+00  0.00000000E+00  0.00000000E+00
  0.00000000E+00  6.89990666E-02  3.16423961E-01  7.44308291E-01  1.00000000E+00
  0.00000000E+00  0.00000000E+00  0.00000000E+00  0.00000000E+00  0.00000000E+00
  0.00000000E+00  0.00000000E+00  6.75797439E-02  3.23907296E-01  7.40895140E-01
  1.00000000E+00  0.00000000E+00  0.00000000E+00  0.00000000E+00  0.00000000E+00
  0.00000000E+00  0.00000000E+00  0.00000000E+00  7.08742682E-02  3.39752839E-01
  7.27158577E-01  1.00000000E+00  0.00000000E+00  0.00000000E+00  0.00000000E+00
  0.00000000E+00  0.00000000E+00  0.00000000E+00  0.00000000E+00  0.00000000E+00
  0.00000000E+00  0.00000000E+00  0.00000000E+00  0.00000000E+00  0.00000000E+00
Coordinates of each shell                  R   N=          54
 -3.05101953E-01  7.31369367E-01 -1.88972613E-04 -3.05101953E-01  7.31369367E-01
 -1.88972613E-04 -3.05101953E-01  7.31369367E-01 -1.88972613E-04 -3.05101953E-01
  7.31369367E-01 -1.88972613E-04  2.04417912E+00 -2.97541159E-01 -1.43619186E-04
  2.04417912E+00 -2.97541159E-01 -1.43619186E-04  2.04417912E+00 -2.97541159E-01
 -1.43619186E-04  2.04417912E+00 -2.97541159E-01 -1.43619186E-04 -2.25718149E+00
 -4.63676432E-01  1.28501377E-04 -2.25718149E+00 -4.63676432E-01  1.28501377E-04
 -2.25718149E+00 -4.63676432E-01  1.28501377E-04 -2.25718149E+00 -4.63676432E-01
  1.28501377E-04  2.21969310E+00 -2.19730552E+00  3.60937691E-04  2.21969310E+00
 -2.19730552E+00  3.60937691E-04  3.61341337E+00  7.79997689E-01  6.06602089E-04
  3.61341337E+00  7.79997689E-01  6.06602089E-04 -2.54296666E-01  2.82129498E+00
  1.49288364E-04 -2.54296666E-01  2.82129498E+00  1.49288364E-04
Density Number of contracted shells        I               60
Density Number of primitive shells         I               60
Density Pure/Cartesian d shells            I                0
Density Pure/Cartesian f shells            I                0
Density Highest angular momentum           I                3
Density Largest degree of contraction      I                1
Density Shell types                        I   N=          60
           0           0           0           0          -1          -2
          -1          -2          -1          -2          -1          -2
          -3          -1          -2          -3           0           0
           0           0          -1          -2          -1          -2
          -1          -2          -1          -2          -3          -1
          -2          -3           0           0           0           0
          -1          -2          -1          -2          -1          -2
          -1          -2          -3          -1          -2          -3
           0           0           0           0           0           0
           0           0           0           0           0           0
Density Number of primitives per shell     I   N=          60
           1           1           1           1           1           1
           1           1           1           1           1           1
           1           1           1           1           1           1
           1           1           1           1           1           1
           1           1           1           1           1           1
           1           1           1           1           1           1
           1           1           1           1           1           1
           1           1           1           1           1           1
           1           1           1           1           1           1
           1           1           1           1           1           1
Density Shell to atom map                  I   N=          60
           1           1           1           1           1           1
           1           1           1           1           1           1
           1           1           1           1           2           2
           2           2           2           2           2           2
           2           2           2           2           2           2
           2           2           3           3           3           3
           3           3           3           3           3           3
           3           3           3           3           3           3
           4           4           4           4           5           5
           5           5           6           6           6           6
Density Primitive exponents                R   N=          60
  6.09504976E+03  9.14739036E+02  2.07897370E+02  5.84203106E+01  1.70961976E+01
  1.70961976E+01  6.32785392E+00  6.32785392E+00  3.76257708E+00  3.76257708E+00
  1.31969604E+00  1.31969604E+00  1.31969604E+00  3.37428956E-01  3.37428956E-01
  3.37428956E-01  8.34702292E+03  1.25491582E+03  2.85804186E+02  8.04686586E+01
  2.44174064E+01  2.44174064E+01  8.78087402E+00  8.78087402E+00  5.43255961E+00
  5.43255961E+00  1.57197292E+00  1.57197292E+00  1.57197292E+00  4.24062995E-01
  4.24062995E-01  4.24062995E-01  1.09693433E+04  1.65046989E+03  3.76093916E+02
  1.05929000E+02  3.24087494E+01  3.24087494E+01  1.15992707E+01  1.15992707E+01
  7.19986717E+00  7.19986717E+00  1.80112121E+00  1.80112121E+00  1.80112121E+00
  5.40011645E-01  5.40011645E-01  5.40011645E-01  3.74622739E+01  5.65078873E+00
  1.28024338E+00  3.22555518E-01  3.74622739E+01  5.65078873E+00  1.28024338E+00
  3.22555518E-01  3.74622739E+01  5.65078873E+00  1.28024338E+00  3.22555518E-01
Density Contraction coefficients           R   N=          60
  1.00000000E+00  1.00000000E+00  1.00000000E+00  1.00000000E+00  1.00000000E+00
  1.00000000E+00  1.00000000E+00  1.00000000E+00  1.00000000E+00  1.00000000E+00
  1.00000000E+00  1.00000000E+00  1.00000000E+00  1.00000000E+00  1.00000000E+00
  1.00000000E+00  1.00000000E+00  1.00000000E+00  1.00000000E+00  1.00000000E+00
  1.00000000E+00  1.00000000E+00  1.00000000E+00  1.00000000E+00  1.00000000E+00
  1.00000000E+00  1.00000000E+00  1.00000000E+00  1.00000000E+00  1.00000000E+00
  1.00000000E+00  1.00000000E+00  1.00000000E+00  1.00000000E+00  1.00000000E+00
  1.00000000E+00  1.00000000E+00  1.00000000E+00  1.00000000E+00  1.00000000E+00
  1.00000000E+00  1.00000000E+00  1.00000000E+00  1.00000000E+00  1.00000000E+00
  1.00000000E+00  1.00000000E+00  1.00000000E+00  1.00000000E+00  1.00000000E+00
  1.00000000E+00  1.00000000E+00  1.00000000E+00  1.00000000E+00  1.00000000E+00
  1.00000000E+00  1.00000000E+00  1.00000000E+00  1.00000000E+00  1.00000000E+00
Density P(S=P) Contraction coefficients    R   N=          60
  0.00000000E+00  0.00000000E+00  0.00000000E+00  0.00000000E+00  1.00000000E+00
  0.00000000E+00  1.00000000E+00  0.00000000E+00  1.00000000E+00  0.00000000E+00
  1.00000000E+00  0.00000000E+00  0.00000000E+00  1.00000000E+00  0.00000000E+00
  0.00000000E+00  0.00000000E+00  0.00000000E+00  0.00000000E+00  0.00000000E+00
  1.00000000E+00  0.00000000E+00  1.00000000E+00  0.00000000E+00  1.00000000E+00
  0.00000000E+00  1.00000000E+00  0.00000000E+00  0.00000000E+00  1.00000000E+00
  0.00000000E+00  0.00000000E+00  0.00000000E+00  0.00000000E+00  0.00000000E+00
  0.00000000E+00  1.00000000E+00  0.00000000E+00  1.00000000E+00  0.00000000E+00
  1.00000000E+00  0.00000000E+00  1.00000000E+00  0.00000000E+00  0.00000000E+00
  1.00000000E+00  0.00000000E+00  0.00000000E+00  0.00000000E+00  0.00000000E+00
  0.00000000E+00  0.00000000E+00  0.00000000E+00  0.00000000E+00  0.00000000E+00
  0.00000000E+00  0.00000000E+00  0.00000000E+00  0.00000000E+00  0.00000000E+00
Density Coordinates of each shell          R   N=         180
 -3.05101953E-01  7.31369367E-01 -1.88972613E-04 -3.05101953E-01  7.31369367E-01
 -1.88972613E-04 -3.05101953E-01  7.31369367E-01 -1.88972613E-04 -3.05101953E-01
  7.31369367E-01 -1.88972613E-04 -3.05101953E-01  7.31369367E-01 -1.88972613E-04
 -3.05101953E-01  7.31369367E-01 -1.88972613E-04 -3.05101953E-01  7.31369367E-01
 -1.88972613E-04 -3.05101953E-01  7.31369367E-01 -1.88972613E-04 -3.05101953E-01
  7.31369367E-01 -1.88972613E-04 -3.05101953E-01  7.31369367E-01 -1.88972613E-04
 -3.05101953E-01  7.31369367E-01 -1.88972613E-04 -3.05101953E-01  7.31369367E-01
 -1.88972613E-04 -3.05101953E-01  7.31369367E-01 -1.88972613E-04 -3.05101953E-01
  7.31369367E-01 -1.88972613E-04 -3.05101953E-01  7.31369367E-01 -1.88972613E-04
 -3.05101953E-01  7.31369367E-01 -1.88972613E-04  2.04417912E+00 -2.97541159E-01
 -1.43619186E-04  2.04417912E+00 -2.97541159E-01 -1.43619186E-04  2.04417912E+00
 -2.97541159E-01 -1.43619186E-04  2.04417912E+00 -2.97541159E-01 -1.43619186E-04
  2.04417912E+00 -2.97541159E-01 -1.43619186E-04  2.04417912E+00 -2.97541159E-01
 -1.43619186E-04  2.04417912E+00 -2.97541159E-01 -1.43619186E-04  2.04417912E+00
 -2.97541159E-01 -1.43619186E-04  2.04417912E+00 -2.97541159E-01 -1.43619186E-04
  2.04417912E+00 -2.97541159E-01 -1.43619186E-04  2.04417912E+00 -2.97541159E-01
 -1.43619186E-04  2.04417912E+00 -2.97541159E-01 -1.43619186E-04  2.04417912E+00
 -2.97541159E-01 -1.43619186E-04  2.04417912E+00 -2.97541159E-01 -1.43619186E-04
  2.04417912E+00 -2.97541159E-01 -1.43619186E-04  2.04417912E+00 -2.97541159E-01
 -1.43619186E-04 -2.25718149E+00 -4.63676432E-01  1.28501377E-04 -2.25718149E+00
 -4.63676432E-01  1.28501377E-04 -2.25718149E+00 -4.63676432E-01  1.28501377E-04
 -2.25718149E+00 -4.63676432E-01  1.28501377E-04 -2.25718149E+00 -4.63676432E-01
  1.28501377E-04 -2.25718149E+00 -4.63676432E-01  1.28501377E-04 -2.25718149E+00
 -4.63676432E-01  1.28501377E-04 -2.25718149E+00 -4.63676432E-01  1.28501377E-04
 -2.25718149E+00 -4.63676432E-01  1.28501377E-04 -2.25718149E+00 -4.63676432E-01
  1.28501377E-04 -2.25718149E+00 -4.63676432E-01  1.28501377E-04 -2.25718149E+00
 -4.63676432E-01  1.28501377E-04 -2.25718149E+00 -4.63676432E-01  1.28501377E-04
 -2.25718149E+00 -4.63676432E-01  1.28501377E-04 -2.25718149E+00 -4.63676432E-01
  1.28501377E-04 -2.25718149E+00 -4.63676432E-01  1.28501377E-04  2.21969310E+00
 -2.19730552E+00  3.60937691E-04  2.21969310E+00 -2.19730552E+00  3.60937691E-04
  2.21969310E+00 -2.19730552E+00  3.60937691E-04  2.21969310E+00 -2.19730552E+00
  3.60937691E-04  3.61341337E+00  7.79997689E-01  6.06602089E-04  3.61341337E+00
  7.79997689E-01  6.06602089E-04  3.61341337E+00  7.79997689E-01  6.06602089E-04
  3.61341337E+00  7.79997689E-01  6.06602089E-04 -2.54296666E-01  2.82129498E+00
  1.49288364E-04 -2.54296666E-01  2.82129498E+00  1.49288364E-04 -2.54296666E-01
  2.82129498E+00  1.49288364E-04 -2.54296666E-01  2.82129498E+00  1.49288364E-04
Constraint Structure                       R   N=          18
 -3.05101953E-01  7.31369367E-01 -1.88972613E-04  2.04417912E+00 -2.97541159E-01
 -1.43619186E-04 -2.25718149E+00 -4.63676432E-01  1.28501377E-04  2.21969310E+00
 -2.19730552E+00  3.60937691E-04  3.61341337E+00  7.79997689E-01  6.06602089E-04
 -2.54296666E-01  2.82129498E+00  1.49288364E-04
Num ILSW                                   I              100
ILSW                                       I   N=         100
           0           1           0           0           2           0
           0           0           0           0       20419          -1
           0           0           0           0           0           0
           0           0           1           0           1           0
           1           1           0           0           0           0
           0           0      100000           0          -1           0
           0           0           0           0           0           0
           0           0           0           1           0           0
           0           0           1           0           0           0
           0           0           4          40           0           0
           0           0          40           0           0           0
           0           0           0           0           0           0
           0           0           0           0           0           0
           0           0           0           0           0           0
           0           0           0           0           0           0
           0           0           0           0           0           0
           0           0           0           0
Num RLSW                                   I               40
RLSW                                       R   N=          40
  1.00000000E+00  1.00000000E+00  1.00000000E+00  8.10000000E-01  1.00000000E+00
  0.00000000E+00  3.30000000E-01  1.90000000E-01  0.00000000E+00  4.60000000E-01
  0.00000000E+00  3.30000000E-01  1.90000000E-01  0.00000000E+00  4.60000000E-01
  0.00000000E+00  0.00000000E+00  1.00000000E+00  0.00000000E+00  0.00000000E+00
  0.00000000E+00  0.00000000E+00  1.00000000E+00  0.00000000E+00  0.00000000E+00
  0.00000000E+00  0.00000000E+00  1.00000000E+00  0.00000000E+00  0.00000000E+00
  0.00000000E+00  0.00000000E+00  0.00000000E+00  0.00000000E+00  0.00000000E+00
  0.00000000E+00  0.00000000E+00  0.00000000E+00  1.00000000E+00  1.00000000E+00
MxBond                                     I                3
NBond                                      I   N=           6
           3           3           1           1           1           1
IBond                                      I   N=          18
           2           3           6           1           4           5
           1           0           0           2           0           0
           2           0           0           1           0           0
RBond                                      R   N=          18
  1.41000000E+00  2.00000000E+00  1.00000000E+00  1.41000000E+00  1.00000000E+00
  1.00000000E+00  2.00000000E+00  0.00000000E+00  0.00000000E+00  1.00000000E+00
  0.00000000E+00  0.00000000E+00  1.00000000E+00  0.00000000E+00  0.00000000E+00
  1.00000000E+00  0.00000000E+00  0.00000000E+00
Virial Ratio                               R      2.008713759401785E+00
SCF Energy                                 R     -1.698151191725191E+02
CIS Energy                                 R     -1.695065295332373E+02
Total Energy                               R     -1.695065295332373E+02
Post-SCF wavefunction norm                 R      1.000000000000000E+00
RMS Force                                  R      3.962152741582382E-02
RMS Density                                R      4.779449547420467E-09
External E-field                           R   N=          35
  0.00000000E+00  0.00000000E+00  0.00000000E+00  0.00000000E+00  0.00000000E+00
  0.00000000E+00  0.00000000E+00  0.00000000E+00  0.00000000E+00  0.00000000E+00
  0.00000000E+00  0.00000000E+00  0.00000000E+00  0.00000000E+00  0.00000000E+00
  0.00000000E+00  0.00000000E+00  0.00000000E+00  0.00000000E+00  0.00000000E+00
  0.00000000E+00  0.00000000E+00  0.00000000E+00  0.00000000E+00  0.00000000E+00
  0.00000000E+00  0.00000000E+00  0.00000000E+00  0.00000000E+00  0.00000000E+00
  0.00000000E+00  0.00000000E+00  0.00000000E+00  0.00000000E+00  0.00000000E+00
IOpCl                                      I                0
IROHF                                      I                0
Alpha Orbital Energies                     R   N=          51
 -1.91874327E+01 -1.44357136E+01 -1.03637828E+01 -1.11384278E+00 -9.88927429E-01
 -7.00074423E-01 -6.28169382E-01 -5.47958872E-01 -4.77323161E-01 -4.72043992E-01
 -3.33294464E-01 -3.18305940E-01  8.89286322E-02  1.24218749E-01  1.61056619E-01
  2.18111716E-01  3.22342740E-01  4.06197211E-01  5.92290057E-01  6.11721966E-01
  7.12885172E-01  7.45982499E-01  7.67440396E-01  7.76806879E-01  9.04341462E-01
  9.28173028E-01  9.39097212E-01  9.53623377E-01  1.07506827E+00  1.14279056E+00
  1.27876380E+00  1.36396742E+00  1.44724117E+00  1.54564464E+00  1.57919427E+00
  1.76002794E+00  1.85093496E+00  1.92698277E+00  1.94709358E+00  2.11309597E+00
  2.18182967E+00  2.35419523E+00  2.37184522E+00  2.56702813E+00  2.71167602E+00
  2.74335271E+00  2.99134444E+00  3.08909907E+00  3.80967101E+00  3.93765667E+00
  4.25130961E+00
Alpha MO coefficients                      R   N=        2601
  1.45304861E-05  5.55436377E-04  5.97815726E-05 -2.21355579E-05 -2.57103633E-08
 -2.77511310E-03  2.05542427E-03  1.85916790E-03 -2.48843778E-07 -6.72590377E-04
 -2.72316748E-04 -6.91540739E-06 -4.59108020E-04  1.19240850E-07  9.44514417E-08
 -7.78406027E-06 -2.96100594E-07 -7.46130428E-07  8.72700751E-05 -1.68578472E-08
  1.78916124E-04 -2.63429995E-04 -6.73906766E-04  5.69394708E-08 -1.07266075E-04
  3.94899098E-05 -1.77639045E-05 -1.04638851E-04 -6.92371275E-09 -4.57092802E-08
  9.92815165E-01  2.57791874E-02  1.08912252E-03  6.29420927E-04 -2.05387976E-07
  1.29603434E-02  1.21143479E-03  6.42959896E-04 -2.21227651E-07 -7.54017044E-03
 -7.80370346E-03 -7.94702988E-03  2.63434003E-04 -8.06788031E-08 -4.33704630E-08
 -1.29509025E-04 -2.39086325E-04  1.65565977E-04 -1.04120753E-05 -2.63991947E-05
 -5.66330781E-04  3.76935316E-05  2.43839454E-04  3.13200008E-04 -1.74426338E-04
 -1.44105276E-09 -4.62633659E-04 -1.89248458E-04 -1.13042121E-05  9.66812029E-08
  1.18792933E-04  4.90216225E-05 -1.17333873E-05 -4.31565530E-05 -1.86370565E-08
 -1.18678568E-08  9.92613171E-01  3.48537666E-02  1.17057707E-04 -7.63112219E-06
  5.62633565E-07  4.32351785E-03  1.15181946E-05 -1.78010399E-05 -1.42460026E-07
 -8.40477475E-03 -8.33646146E-03 -8.38337727E-03  3.41043450E-05  1.66321959E-08
 -2.62141025E-09  6.73350399E-06  3.46176954E-05 -2.58469640E-05 -8.21152736E-07
  7.43457648E-10 -1.04444489E-04 -9.70711656E-05  1.83021572E-05 -2.86266556E-08
 -7.67615959E-05  2.97521755E-05  1.38166500E-05  4.79795476E-06 -1.02510863E-09
 -1.22282375E-08  3.19670647E-04 -5.30766990E-04  3.15676533E-04 -5.12804512E-04
 -2.52994051E-05  4.95548323E-05  9.92753944E-01  4.84512975E-02 -4.36160745E-05
 -6.00216287E-04  3.48519149E-08 -6.69941423E-03 -1.96534477E-03 -2.44678633E-03
 -2.20332817E-07 -8.51975533E-03 -9.22973858E-03 -9.88540740E-03  3.12011301E-04
 -1.09199517E-07 -5.66334220E-08 -1.95581561E-04 -7.22839705E-05  2.77814363E-04
 -2.20567501E-04  8.22436359E-09  1.42745003E-03  4.98245942E-04  9.53213207E-04
  9.56804353E-08 -6.13802456E-04 -2.33122310E-04 -1.87538326E-05  2.99565765E-04
 -2.61756854E-08  7.81488631E-08 -1.58170691E-04  4.07868713E-04  4.66460879E-05
  8.02494632E-06 -2.51721632E-08 -2.94163208E-03 -1.72900698E-03 -8.42075176E-04
  5.07930172E-07 -1.27358139E-04  1.34302651E-04  3.67542575E-04 -2.31010479E-04
  1.63614923E-07  8.21411657E-08  1.54935918E-04  3.51604609E-04 -2.10924252E-04
 -1.89776151E-04 -2.40401487E-04  2.90185170E-03 -1.32335590E-01  2.59143817E-01
 -1.10009120E-01 -1.05323309E-01  2.62225732E-05  8.18300487E-02  7.74315798E-03
  3.01856112E-02 -1.95373175E-07  1.12622705E-02 -6.39538697E-03 -2.25661059E-02
  1.78924811E-02 -4.75551216E-06 -2.47526985E-06 -6.27218867E-02  1.28527314E-01
 -4.53112444E-02  8.00426672E-03  1.34596533E-05  1.20641494E-01 -2.43347857E-02
 -4.11091153E-03  6.52748905E-06  9.27698618E-03  1.73817209E-03 -6.42627260E-03
 -1.84881034E-03  1.35622713E-06 -3.56062430E-07 -1.78197601E-01  3.84272951E-01
  1.35483945E-01  7.64173823E-02 -2.05916683E-05  3.57216475E-01  4.70181227E-02
  2.01677643E-02 -7.26255440E-06  5.56095638E-03 -5.70792004E-03 -7.36832762E-03
  9.97643164E-03 -2.84545741E-06 -1.43731596E-06  3.02337483E-02  4.35585191E-04
  2.68794485E-02  1.72286087E-03  3.28104062E-02 -1.53340588E-02 -3.26024590E-02
  6.63053976E-02  2.14164269E-01  5.14765388E-03 -5.19139696E-06  1.37803120E-02
  9.70523616E-03  1.05868687E-02 -2.63842030E-06  5.69231405E-03 -1.65804331E-03
 -3.05927028E-03 -2.17311578E-02  4.85782607E-06  1.63122319E-06 -1.88352860E-01
  3.91994181E-01 -1.15133726E-02  1.90453019E-02  5.14411116E-05  4.00132102E-01
  2.01360674E-03  7.09301802E-03  2.71000573E-05  4.77230504E-03  1.13551442E-02
 -1.77113029E-02  2.98583183E-03  9.07703723E-06 -3.97794017E-07  8.57031619E-02
 -1.90408678E-01 -3.51523697E-02 -3.91068368E-02  9.81268875E-06 -1.68866566E-01
 -9.14037795E-04 -9.57885024E-03  1.85968894E-06  1.85386778E-03 -2.61078668E-04
  1.48849449E-03 -2.70103410E-03  8.42389651E-07  1.06932961E-06  1.10523990E-01
  5.04924610E-03  1.19806737E-01  7.41615893E-03  1.90341668E-02  3.34040754E-03
 -1.32230764E-01  2.84910701E-01  1.60400938E-01  1.41183430E-01 -4.63973701E-06
  2.04231742E-01  4.65390549E-02  6.89900570E-02  2.68988769E-06 -8.42591052E-03
  2.65666987E-03 -1.33006360E-02 -6.65110820E-03 -3.78819068E-07  6.08076790E-06
  4.55120612E-02 -9.93522728E-02 -2.50334630E-01  2.29768887E-01 -7.57641254E-05
 -1.35335118E-01 -1.17445943E-01  1.00983219E-01 -3.88908301E-05  3.26037917E-03
 -1.15413249E-02  4.02395851E-03 -1.10360242E-02 -9.17635836E-06  7.42621142E-06
  6.17195703E-02 -1.41889421E-01  3.65765206E-02  4.69442736E-02 -2.14827524E-06
 -1.52420037E-01  3.21636808E-02  2.88214434E-02 -6.98825713E-06  4.42854581E-03
  3.43420291E-03 -6.99535969E-04  6.23359753E-03 -6.32148734E-07 -7.52249298E-07
 -1.64178774E-01 -6.04333129E-02 -7.97892516E-02 -2.79912462E-02  1.62756893E-01
  6.60985682E-02  1.83452245E-02 -4.78745606E-02 -1.10285432E-01  2.18241658E-01
  3.66036262E-05 -1.24357745E-02 -1.16839847E-02  5.13432585E-02  8.53540420E-06
  7.38547226E-03 -1.91957519E-03  3.09700841E-03  1.56737198E-02  1.68964250E-06
  1.52620958E-06 -1.86245939E-03  2.52822706E-03  3.59468705E-01  2.68775452E-01
  8.58672428E-05  1.00966997E-03  1.73243826E-01  1.40780037E-01  4.39658561E-05
  8.72218323E-03 -2.08283858E-03 -1.11402088E-03  1.31841800E-02  1.42716165E-05
  1.54869871E-05 -3.02875891E-02  6.34943120E-02 -1.00472452E-01  7.14500071E-02
  2.26274929E-05  1.10143508E-01 -4.77117310E-02  3.89270407E-02  1.09598193E-05
 -1.25099314E-02  3.30812907E-03 -8.23252342E-04  1.45099079E-03  3.21903554E-06
  5.86892658E-07 -1.20999474E-01 -4.97692187E-02  2.48970266E-01  1.23197515E-01
  8.28340659E-02  6.12423227E-02  4.66403897E-02 -1.00919014E-01  2.29102648E-01
 -2.56442416E-01 -5.82731086E-05 -1.45463208E-01  3.68986077E-02 -9.15645027E-02
 -1.82747157E-05  1.78388214E-02 -1.62511903E-02  2.09736327E-03  4.39904118E-04
 -1.53892860E-07 -2.76541335E-06 -1.27150656E-02  2.91703407E-02 -1.17659808E-01
  3.27465935E-01 -6.33800164E-05  4.81378900E-02 -6.64442319E-02  1.81575487E-01
 -3.92241387E-05  8.05658130E-03 -1.71006626E-02 -3.28585696E-04  8.42040502E-03
  9.25300761E-07  1.27054184E-05 -5.31488648E-02  1.10520394E-01 -4.93776438E-02
 -2.26939316E-01 -1.07673151E-05  2.13589641E-01 -1.51198274E-02 -1.16246860E-01
 -7.66734464E-06 -2.41701475E-04 -1.78852755E-02 -2.16840972E-03 -1.31226744E-02
 -1.84371517E-06  1.46655162E-06 -1.91759864E-01 -1.03927433E-01  6.74045905E-02
  3.66853376E-02 -1.85138662E-01 -1.27017854E-01 -3.72580152E-02  1.02677855E-01
 -2.31409628E-01 -2.59263931E-01 -8.00222537E-06  3.52539345E-02 -2.23632072E-02
 -4.56009635E-02 -1.27011889E-05 -2.51197847E-04 -1.56780753E-02 -6.11810570E-03
  1.32833922E-02  9.65518710E-07 -2.64566076E-06  4.65168840E-03 -1.13995264E-02
  9.89828516E-02  1.03575946E-01  2.70516341E-05 -1.05760150E-02  4.58690317E-02
  3.66334262E-02  1.75911912E-05  1.28185459E-02 -9.91341125E-03 -3.15640682E-04
  9.41179589E-03  5.22574306E-06  5.66911386E-06  8.21055640E-02 -1.65341393E-01
  4.53254991E-01  1.96065004E-01 -1.10264421E-04 -3.63676107E-01  2.45976851E-01
  1.01051548E-01 -6.32295828E-05  3.29861880E-02  5.87604160E-03  4.45935423E-04
  1.51449548E-02 -8.62256509E-06 -4.02069165E-06 -7.50482772E-02 -6.92786387E-02
  9.74069750E-02  7.47097698E-02 -1.15282545E-01 -1.27642934E-01  6.24017894E-06
 -1.32149746E-05  5.76234604E-05 -5.59689042E-05  3.71282378E-01 -3.27943534E-05
  2.23799276E-05 -1.99828428E-05  1.90473081E-01 -5.48410424E-06  1.34197793E-07
  4.78989698E-06 -1.82691895E-06 -2.64465769E-03 -1.52723265E-02  2.16761598E-05
 -4.86328461E-05 -9.23947102E-05  3.02368742E-05  3.14133786E-01 -8.12678752E-05
 -6.44622114E-05  1.80009186E-05  2.16471777E-01 -2.58957033E-06 -5.06430803E-06