 Entering Gaussian System, Link 0=g09
 Input=td7-opt.com
 Output=td7-opt.log
 Initial command:
 /home/diegoa/progs/g09/l1.exe /home/diegoa/g09scratch/Gau-8949.inp -scrdir=/home/diegoa/g09scratch/
 Default is to use a total of   4 processors:
                                4 via shared-memory
                                1 via Linda
 Entering Link 1 = /home/diegoa/progs/g09/l1.exe PID=      8955.
  
 Copyright (c) 1988,1990,1992,1993,1995,1998,2003,2009, Gaussian, Inc.
                  All Rights Reserved.
  
 This is part of the Gaussian(R) 09 program.  It is based on
 the Gaussian(R) 03 system (copyright 2003, Gaussian, Inc.),
 the Gaussian(R) 98 system (copyright 1998, Gaussian, Inc.),
 the Gaussian(R) 94 system (copyright 1995, Gaussian, Inc.),
 the Gaussian 92(TM) system (copyright 1992, Gaussian, Inc.),
 the Gaussian 90(TM) system (copyright 1990, Gaussian, Inc.),
 the Gaussian 88(TM) system (copyright 1988, Gaussian, Inc.),
 the Gaussian 86(TM) system (copyright 1986, Carnegie Mellon
 University), and the Gaussian 82(TM) system (copyright 1983,
 Carnegie Mellon University). Gaussian is a federally registered
 trademark of Gaussian, Inc.
  
 This software contains proprietary and confidential information,
 including trade secrets, belonging to Gaussian, Inc.
  
 This software is provided under written license and may be
 used, copied, transmitted, or stored only in accord with that
 written license.
  
 The following legend is applicable only to US Government
 contracts under FAR:
  
                    RESTRICTED RIGHTS LEGEND
  
 Use, reproduction and disclosure by the US Government is
 subject to restrictions as set forth in subparagraphs (a)
 and (c) of the Commercial Computer Software - Restricted
 Rights clause in FAR 52.227-19.
  
 Gaussian, Inc.
 340 Quinnipiac St., Bldg. 40, Wallingford CT 06492
  
  
 ---------------------------------------------------------------
 Warning -- This program may not be used in any manner that
 competes with the business of Gaussian, Inc. or will provide
 assistance to any competitor of Gaussian, Inc.  The licensee
 of this program is prohibited from giving any competitor of
 Gaussian, Inc. access to this program.  By using this program,
 the user acknowledges that Gaussian, Inc. is engaged in the
 business of creating and licensing software in the field of
 computational chemistry and represents and warrants to the
 licensee that it is not a competitor of Gaussian, Inc. and that
 it will not use this program in any manner prohibited above.
 ---------------------------------------------------------------
  

 Cite this work as:
 Gaussian 09, Revision A.01,
 M. J. Frisch, G. W. Trucks, H. B. Schlegel, G. E. Scuseria, 
 M. A. Robb, J. R. Cheeseman, G. Scalmani, V. Barone, B. Mennucci, 
 G. A. Petersson, H. Nakatsuji, M. Caricato, X. Li, H. P. Hratchian, 
 A. F. Izmaylov, J. Bloino, G. Zheng, J. L. Sonnenberg, M. Hada, 
 M. Ehara, K. Toyota, R. Fukuda, J. Hasegawa, M. Ishida, T. Nakajima, 
 Y. Honda, O. Kitao, H. Nakai, T. Vreven, J. A. Montgomery, Jr., 
 J. E. Peralta, F. Ogliaro, M. Bearpark, J. J. Heyd, E. Brothers, 
 K. N. Kudin, V. N. Staroverov, R. Kobayashi, J. Normand, 
 K. Raghavachari, A. Rendell, J. C. Burant, S. S. Iyengar, J. Tomasi, 
 M. Cossi, N. Rega, J. M. Millam, M. Klene, J. E. Knox, J. B. Cross, 
 V. Bakken, C. Adamo, J. Jaramillo, R. Gomperts, R. E. Stratmann, 
 O. Yazyev, A. J. Austin, R. Cammi, C. Pomelli, J. W. Ochterski, 
 R. L. Martin, K. Morokuma, V. G. Zakrzewski, G. A. Voth, 
 P. Salvador, J. J. Dannenberg, S. Dapprich, A. D. Daniels, 
 O. Farkas, J. B. Foresman, J. V. Ortiz, J. Cioslowski, 
 and D. J. Fox, Gaussian, Inc., Wallingford CT, 2009.
 
 ******************************************
 Gaussian 09:  EM64L-G09RevA.01  8-May-2009
                25-Oct-2019 
 ******************************************
 %chk=td7-opt.chk
 %NProcShared=4
 Will use up to    4 processors via shared memory.
 Default route:  MP2=Direct MaxDisk=1000GB DenFit
 ----------------------------------------------------------------------
 # cam-b3lyp/aug-cc-pvtz nosymm td(root=7,nstates=20) opt integral=(gri
 d=ultrafine)
 ----------------------------------------------------------------------
 1/14=-1,18=20,19=15,26=3,38=1/1,3;
 2/9=110,12=2,15=1,17=6,18=5,40=1/2;
 3/5=16,6=1,7=10,11=2,16=1,25=1,30=1,71=1,74=-40,75=-5,82=47/1,2,8,3;
 4//1;
 5/5=2,38=5/2;
 8/6=1,10=1,107=7,108=20/1;
 9/8=7,15=2,41=20,42=1/14;
 10/5=4,31=1/2;
 6/7=2,8=2,9=2,10=2/1;
 7/12=6,13=5,14=7,30=1/1,2,3,16;
 1/14=-1,18=20,19=15/3(2);
 2/9=110,15=1/2;
 99//99;
 2/9=110,15=1/2;
 3/5=16,6=1,7=10,11=2,16=1,25=1,30=1,71=1,74=-40,75=-5,82=47/1,2,8,3;
 4/5=5,16=3/1;
 5/5=2,38=5/2;
 8/6=1,10=1,107=7,108=20/1;
 9/8=7,15=2,41=20,42=1,49=4/14;
 10/5=4,31=1/2;
 7/12=6,13=5,14=7,30=1/1,2,3,16;
 1/14=-1,18=20,19=15/3(-8);
 2/9=110,15=1/2;
 6/7=2,8=2,9=2,10=2/1;
 99//99;
 -----
 Title
 -----
 Symbolic Z-matrix:
 Charge =  0 Multiplicity = 1
 6                    -0.12356   0.42901  -0.00791 
 7                     1.06129  -0.14868  -0.01259 
 8                    -1.15006  -0.3113   -0.04719 
 1                     1.13247  -1.16387   0.07135 
 1                     1.90808   0.3987   -0.05705 
 1                    -0.17051   1.52818   0.05371 
 

 GradGradGradGradGradGradGradGradGradGradGradGradGradGradGradGradGradGrad
 Berny optimization.
 Initialization pass.
                           ----------------------------
                           !    Initial Parameters    !
                           ! (Angstroms and Degrees)  !
 --------------------------                            --------------------------
 ! Name  Definition              Value          Derivative Info.                !
 --------------------------------------------------------------------------------
 ! R1    R(1,2)                  1.3182         estimate D2E/DX2                !
 ! R2    R(1,3)                  1.2662         estimate D2E/DX2                !
 ! R3    R(1,6)                  1.1019         estimate D2E/DX2                !
 ! R4    R(2,4)                  1.0211         estimate D2E/DX2                !
 ! R5    R(2,5)                  1.0093         estimate D2E/DX2                !
 ! A1    A(2,1,3)              118.1863         estimate D2E/DX2                !
 ! A2    A(2,1,6)              118.4023         estimate D2E/DX2                !
 ! A3    A(3,1,6)              123.3953         estimate D2E/DX2                !
 ! A4    A(1,2,4)              119.872          estimate D2E/DX2                !
 ! A5    A(1,2,5)              121.1055         estimate D2E/DX2                !
 ! A6    A(4,2,5)              118.9672         estimate D2E/DX2                !
 ! D1    D(3,1,2,4)             -7.683          estimate D2E/DX2                !
 ! D2    D(3,1,2,5)            175.0479         estimate D2E/DX2                !
 ! D3    D(6,1,2,4)            170.9077         estimate D2E/DX2                !
 ! D4    D(6,1,2,5)             -6.3613         estimate D2E/DX2                !
 --------------------------------------------------------------------------------
 Trust Radius=3.00D-01 FncErr=1.00D-07 GrdErr=1.00D-06
 Number of steps in this run=  25 maximum allowed number of steps= 100.
 GradGradGradGradGradGradGradGradGradGradGradGradGradGradGradGradGradGrad

                          Input orientation:                          
 ---------------------------------------------------------------------
 Center     Atomic      Atomic             Coordinates (Angstroms)
 Number     Number       Type             X           Y           Z
 ---------------------------------------------------------------------
      1          6           0       -0.123558    0.429014   -0.007913
      2          7           0        1.061286   -0.148675   -0.012591
      3          8           0       -1.150056   -0.311301   -0.047192
      4          1           0        1.132474   -1.163868    0.071350
      5          1           0        1.908084    0.398700   -0.057049
      6          1           0       -0.170508    1.528179    0.053713
 ---------------------------------------------------------------------
                    Distance matrix (angstroms):
                    1          2          3          4          5
     1  C    0.000000
     2  N    1.318181   0.000000
     3  O    1.266218   2.217584   0.000000
     4  H    2.030067   1.021142   2.439440   0.000000
     5  H    2.032462   1.009288   3.139493   1.749193   0.000000
     6  H    1.101892   2.081719   2.086476   2.990851   2.368235
                    6
     6  H    0.000000
 Symmetry turned off by external request.
 Stoichiometry    CH3NO
 Framework group  C1[X(CH3NO)]
 Deg. of freedom    12
 Full point group                 C1      NOp   1
 Rotational constants (GHZ):     64.6155719     11.9911755     10.1215242
 Standard basis: Aug-CC-pVTZ (5D, 7F)
 Integral buffers will be    131072 words long.
 Raffenetti 2 integral format.
 Two-electron integral symmetry is turned off.
   207 basis functions,   297 primitive gaussians,   240 cartesian basis functions
    12 alpha electrons       12 beta electrons
       nuclear repulsion energy        71.1844927743 Hartrees.
 NAtoms=    6 NActive=    6 NUniq=    6 SFac= 7.50D-01 NAtFMM=   80 NAOKFM=F Big=F
 Standard density basis: Auto (5D, 7F)
   591 Density fitting functions
 One-electron integrals computed using PRISM.
 NBasis=   207 RedAO= T  NBF=   207
 NBsUse=   207 1.00D-06 NBFU=   207
 Harris functional with IExCor=20419 diagonalized for initial guess.
 ExpMin= 2.53D-02 ExpMax= 1.53D+04 ExpMxC= 5.22D+02 IAcc=3 IRadAn=         5 AccDes= 0.00D+00
 HarFok:  IExCor=20419 AccDes= 0.00D+00 IRadAn=         5 IDoV= 1
 ScaDFX=  1.000000  1.000000  1.000000  1.000000
 FoFCou: FMM=F IPFlag=           0 FMFlag=      100000 FMFlg1=           0
         NFxFlg=           0 DoJE=T BraDBF=F KetDBF=T FulRan=T
         Omega=  0.000000  0.000000  1.000000  0.000000  0.000000 ICntrl=     500 IOpCl=  0
         NMat0=    1 NMatS0=    1 NMatT0=    0 NMatD0=    1 NMtDS0=    0 NMtDT0=    0
         I1Cent=           4 NGrid=           0.
 Symmetry not used in FoFCou.
 Requested convergence on RMS density matrix=1.00D-08 within 128 cycles.
 Requested convergence on MAX density matrix=1.00D-06.
 Requested convergence on             energy=1.00D-06.
 No special actions if energy rises.
 FoFJK:  IHMeth= 1 ICntrl=     0 DoSepK=T KAlg= 1 I1Cent= 0 FoldK=F
 FoFJK:  IHMeth= 1 ICntrl=     0 DoSepK=T KAlg= 1 I1Cent= 0 FoldK=F
 FoFJK:  IHMeth= 1 ICntrl=     0 DoSepK=T KAlg= 1 I1Cent= 0 FoldK=F
 FoFJK:  IHMeth= 1 ICntrl=     0 DoSepK=T KAlg= 1 I1Cent= 0 FoldK=F
 FoFJK:  IHMeth= 1 ICntrl=     0 DoSepK=T KAlg= 1 I1Cent= 0 FoldK=F
 FoFJK:  IHMeth= 1 ICntrl=     0 DoSepK=T KAlg= 1 I1Cent= 0 FoldK=F
 FoFJK:  IHMeth= 1 ICntrl=     0 DoSepK=T KAlg= 1 I1Cent= 0 FoldK=F
 FoFJK:  IHMeth= 1 ICntrl=     0 DoSepK=T KAlg= 1 I1Cent= 0 FoldK=F
 FoFJK:  IHMeth= 1 ICntrl=     0 DoSepK=T KAlg= 1 I1Cent= 0 FoldK=F
 FoFJK:  IHMeth= 1 ICntrl=     0 DoSepK=T KAlg= 1 I1Cent= 0 FoldK=F
 FoFJK:  IHMeth= 1 ICntrl=     0 DoSepK=T KAlg= 1 I1Cent= 0 FoldK=F
 SCF Done:  E(RCAM-B3LYP) =  -169.889804721     A.U. after   11 cycles
             Convg  =    0.4462D-08             -V/T =  2.0063
 ExpMin= 2.53D-02 ExpMax= 1.53D+04 ExpMxC= 5.22D+02 IAcc=3 IRadAn=         5 AccDes= 0.00D+00
 HarFok:  IExCor=  205 AccDes= 0.00D+00 IRadAn=         5 IDoV=-2
 ScaDFX=  1.000000  1.000000  1.000000  1.000000
 Range of M.O.s used for correlation:     4   207
 NBasis=   207 NAE=    12 NBE=    12 NFC=     3 NFV=     0
 NROrb=    204 NOA=     9 NOB=     9 NVA=   195 NVB=   195

 **** Warning!!: The largest alpha MO coefficient is  0.40145414D+02

 Would need an additional   658600000 words for in-memory AO integral storage.
    80 initial guesses have been made.
 Convergence on wavefunction:    0.000001000000000
 Iteration     1 Dimension    80 NMult    80
 CISAX will form    80 AO SS matrices at one time.
 FoFJK:  IHMeth= 1 ICntrl=     0 DoSepK=T KAlg= 1 I1Cent= 0 FoldK=F
 FoFJK:  IHMeth= 1 ICntrl=     0 DoSepK=T KAlg= 1 I1Cent= 0 FoldK=F
 New state      1 was old state      6
 New state      2 was old state      1
 New state      3 was old state      2
 New state      4 was old state      3
 New state      5 was old state      4
 New state      6 was old state      5
 New state      8 was old state      9
 New state      9 was old state      8
 New state     10 was old state     11
 New state     11 was old state     12
 New state     12 was old state     13
 New state     13 was old state     10
 New state     14 was old state     15
 New state     15 was old state     14
 New state     18 was old state     20
 New state     19 was old state     18
 New state     20 was old state     19
 Iteration     2 Dimension   120 NMult   120
 FoFJK:  IHMeth= 1 ICntrl=     0 DoSepK=T KAlg= 1 I1Cent= 0 FoldK=F
 FoFJK:  IHMeth= 1 ICntrl=     0 DoSepK=T KAlg= 1 I1Cent= 0 FoldK=F
 New state      7 was old state      8
 New state      8 was old state      7
 New state     12 was old state     13
 New state     13 was old state     12
 New state     16 was old state     17
 New state     17 was old state     16
 New state     19 was old state     20
 New state     20 was old state     19
 Iteration     3 Dimension   160 NMult   160
 FoFJK:  IHMeth= 1 ICntrl=     0 DoSepK=T KAlg= 1 I1Cent= 0 FoldK=F
 FoFJK:  IHMeth= 1 ICntrl=     0 DoSepK=T KAlg= 1 I1Cent= 0 FoldK=F
 Iteration     4 Dimension   200 NMult   200
 FoFJK:  IHMeth= 1 ICntrl=     0 DoSepK=T KAlg= 1 I1Cent= 0 FoldK=F
 FoFJK:  IHMeth= 1 ICntrl=     0 DoSepK=T KAlg= 1 I1Cent= 0 FoldK=F
 Iteration     5 Dimension   240 NMult   240
 FoFJK:  IHMeth= 1 ICntrl=     0 DoSepK=T KAlg= 1 I1Cent= 0 FoldK=F
 FoFJK:  IHMeth= 1 ICntrl=     0 DoSepK=T KAlg= 1 I1Cent= 0 FoldK=F
 Iteration     6 Dimension   280 NMult   280
 FoFJK:  IHMeth= 1 ICntrl=     0 DoSepK=T KAlg= 1 I1Cent= 0 FoldK=F
 FoFJK:  IHMeth= 1 ICntrl=     0 DoSepK=T KAlg= 1 I1Cent= 0 FoldK=F
 Iteration     7 Dimension   314 NMult   314
 FoFJK:  IHMeth= 1 ICntrl=     0 DoSepK=T KAlg= 1 I1Cent= 0 FoldK=F
 FoFJK:  IHMeth= 1 ICntrl=     0 DoSepK=T KAlg= 1 I1Cent= 0 FoldK=F
 Davidson failed to converge within maximum sub-space dimensions.
  Restart with updated initial guess:
 Iteration     1 Dimension    52 NMult   366
 FoFJK:  IHMeth= 1 ICntrl=     0 DoSepK=T KAlg= 1 I1Cent= 0 FoldK=F
 FoFJK:  IHMeth= 1 ICntrl=     0 DoSepK=T KAlg= 1 I1Cent= 0 FoldK=F
 Iteration     2 Dimension    92 NMult   406
 FoFJK:  IHMeth= 1 ICntrl=     0 DoSepK=T KAlg= 1 I1Cent= 0 FoldK=F
 FoFJK:  IHMeth= 1 ICntrl=     0 DoSepK=T KAlg= 1 I1Cent= 0 FoldK=F
 ***********************************************************************
 Excited states from <AA,BB:AA,BB> singles matrix:
 ***********************************************************************
 
 Ground to excited state transition electric dipole moments (Au):
       state          X           Y           Z        Dip. S.      Osc.
         1        -0.0140      0.0143      0.0484      0.0027      0.0003
         2        -0.0583     -0.0245     -0.0665      0.0084      0.0013
         3        -0.0543     -0.0085     -0.2432      0.0622      0.0099
         4         0.3580      0.5022      0.0097      0.3804      0.0651
         5        -0.6999      0.1451     -0.0357      0.5122      0.0900
         6         0.6696     -0.2493     -0.0350      0.5117      0.0913
         7         0.5897      0.2634      0.0011      0.4171      0.0767
         8        -0.0459     -0.0194      0.2361      0.0582      0.0112
         9         0.0368      0.0763      0.1709      0.0364      0.0070
        10         0.2354      0.0001      0.0374      0.0568      0.0115
        11         0.0445     -0.2124     -0.0230      0.0476      0.0098
        12         0.0180      0.0247     -0.0687      0.0057      0.0012
        13         0.1023      0.0243     -0.2027      0.0522      0.0111
        14        -0.0108      0.0245      0.0854      0.0080      0.0017
        15         0.3797      0.0571     -0.0126      0.1476      0.0334
        16        -0.0963     -0.0314     -0.0746      0.0158      0.0036
        17         0.0659     -0.1433      0.0079      0.0249      0.0057
        18         0.0668     -0.1774     -0.0133      0.0361      0.0083
        19        -0.3227     -0.0088      0.0321      0.1052      0.0244
        20         0.0277     -0.0086      0.1389      0.0201      0.0047
 Ground to excited state transition velocity dipole moments (Au):
       state          X           Y           Z        Dip. S.      Osc.
         1         0.0026     -0.0027     -0.0099      0.0001      0.0004
         2         0.0144      0.0056      0.0158      0.0005      0.0014
         3         0.0128      0.0022      0.0583      0.0036      0.0100
         4        -0.0916     -0.1287     -0.0025      0.0249      0.0648
         5         0.1840     -0.0384      0.0097      0.0354      0.0896
         6        -0.1788      0.0669      0.0095      0.0365      0.0910
         7        -0.1616     -0.0730     -0.0004      0.0314      0.0761
         8         0.0130      0.0056     -0.0682      0.0048      0.0112
         9        -0.0106     -0.0220     -0.0483      0.0029      0.0068
        10        -0.0687      0.0010     -0.0115      0.0049      0.0107
        11        -0.0120      0.0653      0.0076      0.0045      0.0096
        12        -0.0031     -0.0062      0.0221      0.0005      0.0011
        13        -0.0333     -0.0081      0.0655      0.0055      0.0114
        14         0.0037     -0.0078     -0.0281      0.0009      0.0018
        15        -0.1291     -0.0180      0.0042      0.0170      0.0334
        16         0.0334      0.0101      0.0249      0.0018      0.0036
        17        -0.0234      0.0489     -0.0052      0.0030      0.0057
        18        -0.0234      0.0609      0.0067      0.0043      0.0083
        19         0.1106      0.0045     -0.0106      0.0124      0.0237
        20        -0.0098      0.0032     -0.0468      0.0023      0.0044
 Ground to excited state transition magnetic dipole moments (Au):
       state          X           Y           Z
         1        -0.8488     -0.4237     -0.0535
         2        -0.0224     -0.0976      0.3444
         3        -0.0044     -0.3678     -0.0973
         4        -0.0041      0.0223     -0.0048
         5         0.0335     -0.0357     -0.2142
         6        -0.0676     -0.0266      0.1396
         7        -0.0437     -0.0541      0.6004
         8         0.0057     -0.3723     -0.0453
         9        -0.0750      0.1079      0.0762
        10         0.0243     -0.0979     -0.0512
        11         0.0222      0.0611     -0.1696
        12         0.0079      0.0348     -0.2248
        13        -0.1191      0.3337      0.1716
        14         0.0917      0.4991     -0.0561
        15        -0.1579      0.1282     -0.1642
        16        -0.7610      0.6921      0.0002
        17         0.3772     -0.4141      0.0805
        18        -0.4388      0.4602      0.0213
        19        -0.2193      0.3024     -0.1037
        20         0.0482     -0.2014      0.0310
 <0|del|b> * <b|rxdel|0> + <0|del|b> * <b|delr+rdel|0>
 Rotatory Strengths (R) in cgs (10**-40 erg-esu-cm/Gauss)
       state          XX          YY          ZZ    R(velocity)
         1         3.3092     -3.8069     -1.5774     -0.6917
 Total R(velocity) tensor for State=          1
                 1             2             3 
      1   0.330916D+01  0.234963D+01  0.235066D+00
      2  -0.494686D+01 -0.380692D+01 -0.270222D+00
      3  -0.137017D+02 -0.753750D+01 -0.157741D+01
         2        11.1876      2.8958     -0.4189      4.5548
 Total R(velocity) tensor for State=          2
                 1             2             3 
      1   0.111876D+02  0.348086D+01 -0.113715D+02
      2   0.780263D+01  0.289577D+01 -0.809506D+01
      3  -0.812640D-02  0.121555D+01 -0.418909D+00
         3       -14.9772     -4.4010      0.0945     -6.4279
 Total R(velocity) tensor for State=          3
                 1             2             3 
      1  -0.149772D+02  0.121899D+02  0.283611D+01
      2  -0.875590D+01 -0.440096D+01  0.208445D+01
      3  -0.736892D+00  0.181743D+01  0.944959D-01
         4        -1.7133      2.8335     -7.9634     -2.2811
 Total R(velocity) tensor for State=          4
                 1             2             3 
      1  -0.171327D+01  0.210618D+01 -0.464220D+02
      2  -0.334715D+01  0.283346D+01 -0.236480D+02
      3  -0.139762D+01  0.114661D+01 -0.796337D+01
         5        -3.5695     -3.4312     21.6619      4.8871
 Total R(velocity) tensor for State=          5
                 1             2             3 
      1  -0.356949D+01  0.676225D+01  0.946463D+02
      2   0.216494D+00 -0.343118D+01 -0.177233D+02
      3   0.314427D+01  0.205235D+02  0.216619D+02
         6        -1.9707     32.7108      0.0397     10.2600
 Total R(velocity) tensor for State=          6
                 1             2             3 
      1  -0.197070D+01 -0.160456D+02  0.755517D+02
      2   0.117268D+02  0.327108D+02 -0.963274D+01
      3   0.647159D+01  0.172878D+02  0.397402D-01
         7         9.2307     10.5955      7.7959      9.2074
 Total R(velocity) tensor for State=          7
                 1             2             3 
      1   0.923074D+01 -0.216088D+02  0.201081D+03
      2  -0.496426D+01  0.105955D+02  0.687179D+02
      3  -0.297320D+01  0.653935D+01  0.779590D+01
         8         1.2054      2.5216     -1.0428      0.8947
 Total R(velocity) tensor for State=          8
                 1             2             3 
      1   0.120537D+01  0.104164D+02  0.108093D+01
      2   0.289785D+01  0.252159D+01  0.758456D+00
      3   0.234818D+01 -0.182400D+02 -0.104282D+01
         9       -12.8103     -1.4455      1.3969     -4.2863
 Total R(velocity) tensor for State=          9
                 1             2             3 
      1  -0.128103D+02  0.419347D+00  0.262598D+01
      2  -0.993933D+00 -0.144548D+01  0.876323D+00
      3  -0.286777D+01 -0.168399D+01  0.139689D+01
        10         1.3476     -2.0479     -2.0658     -0.9220
 Total R(velocity) tensor for State=         10
                 1             2             3 
      1   0.134761D+01 -0.134081D+02 -0.921384D+01
      2   0.753226D+00 -0.204791D+01 -0.467873D+01
      3   0.498712D+00  0.105725D+02 -0.206580D+01
        11         4.9283      0.1709      0.5024      1.8672
 Total R(velocity) tensor for State=         11
                 1             2             3 
      1   0.492826D+01  0.156009D+01 -0.567662D+01
      2   0.189161D+01  0.170930D+00  0.151956D+01
      3   0.117069D+01  0.156468D+00  0.502362D+00
        12        -5.7570     -6.1549      0.3430     -3.8563
 Total R(velocity) tensor for State=         12
                 1             2             3 
      1  -0.575696D+01 -0.686653D+00 -0.992105D+00
      2   0.154728D+01 -0.615493D+01 -0.152465D+01
      3   0.821552D+00  0.810849D+00  0.343006D+00
        13        10.1143     15.8797      1.6348      9.2096
 Total R(velocity) tensor for State=         13
                 1             2             3 
      1   0.101143D+02  0.252022D+02  0.826211D+01
      2  -0.731730D+01  0.158797D+02 -0.175515D+01
      3   0.273237D+01  0.198341D+01  0.163481D+01
        14        -3.8430      1.7628     -2.1381     -1.4061
 Total R(velocity) tensor for State=         14
                 1             2             3 
      1  -0.384301D+01 -0.224217D+01  0.109311D+00
      2   0.116367D+00  0.176283D+01 -0.470500D+00
      3   0.740163D+01  0.113114D+02 -0.213807D+01
        15        -3.6336     21.8978     17.9708     12.0783
 Total R(velocity) tensor for State=         15
                 1             2             3 
      1  -0.363361D+01  0.220492D+02 -0.173095D+02
      2  -0.331667D+01  0.218978D+02 -0.820342D+01
      3   0.125607D+01 -0.482599D+01  0.179708D+02
        16         6.7716    -29.8895    -14.9715    -12.6965
 Total R(velocity) tensor for State=         16
                 1             2             3 
      1   0.677162D+01 -0.283218D+02  0.237961D+01
      2   0.888984D+01 -0.298895D+02  0.167846D+00
      3   0.150049D+02 -0.128218D+02 -0.149715D+02
        17       -20.8099    -12.7117    -27.0687    -20.1968
 Total R(velocity) tensor for State=         17
                 1             2             3 
      1  -0.208099D+02 -0.987888D+01  0.709722D+00
      2  -0.275680D+02 -0.127117D+02  0.448055D+01
      3   0.931074D+00 -0.242465D+01 -0.270687D+02
        18        29.9280     13.5563     35.3687     26.2843
 Total R(velocity) tensor for State=         18
                 1             2             3 
      1   0.299280D+02  0.118531D+02 -0.344396D+01
      2   0.371765D+02  0.135563D+02  0.632381D+01
      3   0.685372D+00 -0.363263D+01  0.353687D+02
        19         1.2527    -25.9557    -19.5571    -14.7534
 Total R(velocity) tensor for State=         19
                 1             2             3 
      1   0.125267D+01 -0.450233D+02 -0.596672D+01
      2  -0.295050D+01 -0.259557D+02 -0.418927D+02
      3  -0.129724D+01 -0.140976D+02 -0.195571D+02
        20        -0.5546     -3.7627     -0.8746     -1.7306
 Total R(velocity) tensor for State=         20
                 1             2             3 
      1  -0.554633D+00 -0.313945D+01 -0.100043D+00
      2  -0.668085D+00 -0.376269D+01 -0.119202D+00
      3   0.944543D+00 -0.982739D+01 -0.874626D+00
 1/2[<0|r|b>*<b|rxdel|0> + (<0|rxdel|b>*<b|r|0>)*]
 Rotatory Strengths (R) in cgs (10**-40 erg-esu-cm/Gauss)
       state          XX          YY          ZZ     R(length)     R(au)
         1        -8.4028      4.2718      1.8305     -0.7669     -0.0016
         2        -0.9232     -1.6872     16.2028      4.5308      0.0096
         3        -0.1670     -2.2181    -16.7378     -6.3743     -0.0135
         4         1.0377     -7.9186      0.0326     -2.2828     -0.0048
         5        16.5830      3.6670     -5.4113      4.9462      0.0105
         6        32.0315     -4.6869      3.4581     10.2676      0.0218
         7        18.2420     10.0863     -0.4502      9.2927      0.0197
         8         0.1854     -5.1088      7.5706      0.8824      0.0019
         9         1.9484     -5.8224     -9.2091     -4.3610     -0.0093
        10        -4.0542      0.0097      1.3543     -0.8967     -0.0019
        11        -0.6977      9.1787     -2.7643      1.9056      0.0040
        12        -0.1013     -0.6090    -10.9244     -3.8783     -0.0082
        13         8.6173     -5.7262     24.5939      9.1617      0.0194
        14         0.6978     -8.6495      3.3887     -1.5210     -0.0032
        15        42.3893     -5.1780     -1.4617     11.9165      0.0253
        16       -51.8039     15.3617      0.0120    -12.1434     -0.0258
        17       -17.5686    -41.9643     -0.4480    -19.9936     -0.0424
        18        20.7316     57.7413      0.2006     26.2245      0.0556
        19       -50.0453      1.8794      2.3560    -15.2699     -0.0324
        20        -0.9453     -1.2239     -3.0403     -1.7365     -0.0037
  1/2[<0|del|b>*<b|r|0> + (<0|r|b>*<b|del|0>)*] (Au)
       state          X           Y           Z        Dip. S.   Osc.(frdel)
         1         0.0000      0.0000     -0.0005      0.0006      0.0004
         2        -0.0008     -0.0001     -0.0011      0.0020      0.0014
         3        -0.0007      0.0000     -0.0142      0.0149      0.0099
         4        -0.0328     -0.0646      0.0000      0.0974      0.0649
         5        -0.1288     -0.0056     -0.0003      0.1347      0.0898
         6        -0.1197     -0.0167     -0.0003      0.1367      0.0912
         7        -0.0953     -0.0192      0.0000      0.1145      0.0763
         8        -0.0006     -0.0001     -0.0161      0.0168      0.0112
         9        -0.0004     -0.0017     -0.0083      0.0103      0.0069
        10        -0.0162      0.0000     -0.0004      0.0166      0.0111
        11        -0.0005     -0.0139     -0.0002      0.0146      0.0097
        12        -0.0001     -0.0002     -0.0015      0.0017      0.0012
        13        -0.0034     -0.0002     -0.0133      0.0169      0.0113
        14         0.0000     -0.0002     -0.0024      0.0026      0.0018
        15        -0.0490     -0.0010     -0.0001      0.0501      0.0334
        16        -0.0032     -0.0003     -0.0019      0.0054      0.0036
        17        -0.0015     -0.0070      0.0000      0.0086      0.0057
        18        -0.0016     -0.0108     -0.0001      0.0125      0.0083
        19        -0.0357      0.0000     -0.0003      0.0361      0.0240
        20        -0.0003      0.0000     -0.0065      0.0068      0.0045
 Ground to excited state transition densities written to RWF  633

 Excitation energies and oscillator strengths:
 
 Excited state symmetry could not be determined.
 Excited State   1:      Singlet-?Sym    5.1393 eV  241.25 nm  f=0.0003  <S**2>=0.000
      12 -> 16         0.66611
      12 -> 17        -0.17439
 
 Excited state symmetry could not be determined.
 Excited State   2:      Singlet-?Sym    6.4633 eV  191.83 nm  f=0.0013  <S**2>=0.000
      11 -> 13         0.13448
      11 -> 16        -0.24088
      12 -> 13         0.59769
      12 -> 15         0.14866
      12 -> 19        -0.11290
 
 Excited state symmetry could not be determined.
 Excited State   3:      Singlet-?Sym    6.5133 eV  190.36 nm  f=0.0099  <S**2>=0.000
      11 -> 13         0.64919
      11 -> 18         0.12242
      11 -> 19        -0.11621
      12 -> 13        -0.10539
 
 Excited state symmetry could not be determined.
 Excited State   4:      Singlet-?Sym    6.9799 eV  177.63 nm  f=0.0651  <S**2>=0.000
      11 -> 16        -0.16317
      12 -> 14         0.63466
      12 -> 18         0.10871
      12 -> 21        -0.16343
 
 Excited state symmetry could not be determined.
 Excited State   5:      Singlet-?Sym    7.1701 eV  172.92 nm  f=0.0900  <S**2>=0.000
      11 -> 14         0.46378
      11 -> 15         0.11266
      11 -> 16         0.34118
      11 -> 17        -0.12782
      11 -> 21        -0.15008
      12 -> 13         0.14230
      12 -> 14         0.15300
      12 -> 15         0.18461
 
 Excited state symmetry could not be determined.
 Excited State   6:      Singlet-?Sym    7.2832 eV  170.23 nm  f=0.0913  <S**2>=0.000
      11 -> 14         0.44314
      11 -> 16        -0.37002
      11 -> 17         0.13919
      11 -> 21        -0.15002
      12 -> 14        -0.12191
      12 -> 15        -0.22686
      12 -> 18         0.11874
 
 Excited state symmetry could not be determined.
 Excited State   7:      Singlet-?Sym    7.5010 eV  165.29 nm  f=0.0767  <S**2>=0.000
      11 -> 16        -0.24989
      12 -> 13        -0.27650
      12 -> 15         0.52950
      12 -> 18        -0.15311
      12 -> 19        -0.13548
 This state for optimization and/or second-order correction.
 Copying the excited state density for this state as the 1-particle RhoCI density.
 
 Excited state symmetry could not be determined.
 Excited State   8:      Singlet-?Sym    7.8245 eV  158.46 nm  f=0.0112  <S**2>=0.000
      11 -> 14        -0.14519
      11 -> 15         0.63841
      11 -> 19        -0.11108
      11 -> 23        -0.16061
 
 Excited state symmetry could not be determined.
 Excited State   9:      Singlet-?Sym    7.8635 eV  157.67 nm  f=0.0070  <S**2>=0.000
      12 -> 16         0.17924
      12 -> 17         0.67061
 
 Excited state symmetry could not be determined.
 Excited State  10:      Singlet-?Sym    8.2238 eV  150.76 nm  f=0.0115  <S**2>=0.000
      11 -> 16         0.22796
      11 -> 17         0.65504
 
 Excited state symmetry could not be determined.
 Excited State  11:      Singlet-?Sym    8.3979 eV  147.64 nm  f=0.0098  <S**2>=0.000
      12 -> 15         0.26971
      12 -> 18         0.36893
      12 -> 19         0.49821
      12 -> 24        -0.10175
 
 Excited state symmetry could not be determined.
 Excited State  12:      Singlet-?Sym    8.6575 eV  143.21 nm  f=0.0012  <S**2>=0.000
      11 -> 18         0.16013
      12 -> 14        -0.13187
      12 -> 18         0.41974
      12 -> 19        -0.35476
      12 -> 20         0.32801
 
 Excited state symmetry could not be determined.
 Excited State  13:      Singlet-?Sym    8.7094 eV  142.36 nm  f=0.0111  <S**2>=0.000
      11 -> 15         0.11279
      11 -> 18         0.48660
      11 -> 19         0.38303
      11 -> 24        -0.18473
      11 -> 29         0.10618
      12 -> 18        -0.12574
      12 -> 20        -0.10951
 
 Excited state symmetry could not be determined.
 Excited State  14:      Singlet-?Sym    8.8973 eV  139.35 nm  f=0.0017  <S**2>=0.000
      11 -> 13         0.11920
      11 -> 18        -0.34514
      11 -> 19         0.50476
      11 -> 20        -0.25143
 
 Excited state symmetry could not be determined.
 Excited State  15:      Singlet-?Sym    9.2312 eV  134.31 nm  f=0.0334  <S**2>=0.000
      12 -> 13         0.12477
      12 -> 18        -0.24872
      12 -> 19         0.15664
      12 -> 20         0.53223
      12 -> 21        -0.18075
      12 -> 23         0.16828
 
 Excited state symmetry could not be determined.
 Excited State  16:      Singlet-?Sym    9.3213 eV  133.01 nm  f=0.0036  <S**2>=0.000
       9 -> 16        -0.20206
      10 -> 16         0.45077
      10 -> 17        -0.11541
      11 -> 13         0.10630
      11 -> 20         0.32727
      11 -> 23        -0.11279
      11 -> 24         0.10765
      12 -> 20        -0.10076
      12 -> 23        -0.15472
 
 Excited state symmetry could not be determined.
 Excited State  17:      Singlet-?Sym    9.3581 eV  132.49 nm  f=0.0057  <S**2>=0.000
      10 -> 16        -0.25455
      11 -> 13         0.10504
      11 -> 19         0.10110
      11 -> 20         0.37238
      12 -> 14         0.12026
      12 -> 20         0.11095
      12 -> 21         0.44529
 
 Excited state symmetry could not be determined.
 Excited State  18:      Singlet-?Sym    9.3756 eV  132.24 nm  f=0.0083  <S**2>=0.000
       9 -> 16        -0.15223
      10 -> 16         0.25602
      11 -> 20        -0.33580
      12 -> 14         0.11860
      12 -> 20         0.15154
      12 -> 21         0.43471
 
 Excited state symmetry could not be determined.
 Excited State  19:      Singlet-?Sym    9.4811 eV  130.77 nm  f=0.0244  <S**2>=0.000
       9 -> 16        -0.11224
      12 -> 21         0.12007
      12 -> 23         0.49558
      12 -> 24        -0.38281
      12 -> 26         0.10203
 
 Excited state symmetry could not be determined.
 Excited State  20:      Singlet-?Sym    9.5215 eV  130.21 nm  f=0.0047  <S**2>=0.000
      12 -> 22         0.68352
 SavETr:  write IOETrn=   770 NScale= 10 NData=  16 NLR=1 LETran=     370.
 FoFJK:  IHMeth= 1 ICntrl=     0 DoSepK=T KAlg= 1 I1Cent= 0 FoldK=F
 FoFJK:  IHMeth= 1 ICntrl=     0 DoSepK=T KAlg= 1 I1Cent= 0 FoldK=F
          IDoAtm=111111
          Differentiating once with respect to electric field.
                with respect to dipole field.
          Differentiating once with respect to nuclear coordinates.
          There are     1 degrees of freedom in the 1st order CPHF.  IDoFFX=0.
 FoFJK:  IHMeth= 1 ICntrl=     0 DoSepK=T KAlg= 1 I1Cent= 0 FoldK=F
 LinEq1:  Iter=  0 NonCon=     1 RMS=3.31D-02 Max=9.32D-01
 AX will form     1 AO Fock derivatives at one time.
 FoFJK:  IHMeth= 1 ICntrl=     0 DoSepK=T KAlg= 1 I1Cent= 0 FoldK=F
 LinEq1:  Iter=  1 NonCon=     1 RMS=1.44D-02 Max=1.70D-01
 FoFJK:  IHMeth= 1 ICntrl=     0 DoSepK=T KAlg= 1 I1Cent= 0 FoldK=F
 LinEq1:  Iter=  2 NonCon=     1 RMS=8.06D-03 Max=1.52D-01
 FoFJK:  IHMeth= 1 ICntrl=     0 DoSepK=T KAlg= 1 I1Cent= 0 FoldK=F
 LinEq1:  Iter=  3 NonCon=     1 RMS=2.16D-03 Max=3.16D-02
 FoFJK:  IHMeth= 1 ICntrl=     0 DoSepK=T KAlg= 1 I1Cent= 0 FoldK=F
 LinEq1:  Iter=  4 NonCon=     1 RMS=1.33D-03 Max=2.50D-02
 FoFJK:  IHMeth= 1 ICntrl=     0 DoSepK=T KAlg= 1 I1Cent= 0 FoldK=F
 LinEq1:  Iter=  5 NonCon=     1 RMS=3.70D-04 Max=5.58D-03
 FoFJK:  IHMeth= 1 ICntrl=     0 DoSepK=T KAlg= 1 I1Cent= 0 FoldK=F
 LinEq1:  Iter=  6 NonCon=     1 RMS=8.31D-05 Max=9.77D-04
 FoFJK:  IHMeth= 1 ICntrl=     0 DoSepK=T KAlg= 1 I1Cent= 0 FoldK=F
 LinEq1:  Iter=  7 NonCon=     1 RMS=1.75D-05 Max=1.99D-04
 FoFJK:  IHMeth= 1 ICntrl=     0 DoSepK=T KAlg= 1 I1Cent= 0 FoldK=F
 LinEq1:  Iter=  8 NonCon=     1 RMS=3.47D-06 Max=6.37D-05
 FoFJK:  IHMeth= 1 ICntrl=     0 DoSepK=T KAlg= 1 I1Cent= 0 FoldK=F
 LinEq1:  Iter=  9 NonCon=     1 RMS=9.04D-07 Max=2.43D-05
 FoFJK:  IHMeth= 1 ICntrl=     0 DoSepK=T KAlg= 1 I1Cent= 0 FoldK=F
 LinEq1:  Iter= 10 NonCon=     1 RMS=2.30D-07 Max=5.55D-06
 FoFJK:  IHMeth= 1 ICntrl=     0 DoSepK=T KAlg= 1 I1Cent= 0 FoldK=F
 LinEq1:  Iter= 11 NonCon=     1 RMS=4.10D-08 Max=4.48D-07
 FoFJK:  IHMeth= 1 ICntrl=     0 DoSepK=T KAlg= 1 I1Cent= 0 FoldK=F
 LinEq1:  Iter= 12 NonCon=     1 RMS=9.08D-09 Max=1.09D-07
 FoFJK:  IHMeth= 1 ICntrl=     0 DoSepK=T KAlg= 1 I1Cent= 0 FoldK=F
 LinEq1:  Iter= 13 NonCon=     1 RMS=1.70D-09 Max=2.63D-08
 FoFJK:  IHMeth= 1 ICntrl=     0 DoSepK=T KAlg= 1 I1Cent= 0 FoldK=F
 LinEq1:  Iter= 14 NonCon=     1 RMS=4.24D-10 Max=5.36D-09
 FoFJK:  IHMeth= 1 ICntrl=     0 DoSepK=T KAlg= 1 I1Cent= 0 FoldK=F
 LinEq1:  Iter= 15 NonCon=     0 RMS=8.86D-11 Max=9.33D-10
 Linear equations converged to 1.000D-10 1.000D-09 after    15 iterations.
 FoFJK:  IHMeth= 1 ICntrl=     0 DoSepK=T KAlg= 1 I1Cent= 0 FoldK=F
 End of Minotr Frequency-dependent properties file   721 does not exist.
 End of Minotr Frequency-dependent properties file   722 does not exist.

 **********************************************************************

            Population analysis using the SCF density.

 **********************************************************************

 Alpha  occ. eigenvalues --  -19.16990 -14.43424 -10.36151  -1.10799  -1.00026
 Alpha  occ. eigenvalues --   -0.71850  -0.64390  -0.56799  -0.48669  -0.47502
 Alpha  occ. eigenvalues --   -0.34320  -0.32841
 Alpha virt. eigenvalues --   -0.00172   0.01870   0.03439   0.03969   0.06248
 Alpha virt. eigenvalues --    0.07581   0.08169   0.09391   0.10175   0.11567
 Alpha virt. eigenvalues --    0.12451   0.13793   0.16791   0.17754   0.18788
 Alpha virt. eigenvalues --    0.21472   0.22040   0.22642   0.23211   0.25532
 Alpha virt. eigenvalues --    0.27566   0.27779   0.30215   0.31900   0.32272
 Alpha virt. eigenvalues --    0.32674   0.34232   0.35002   0.36438   0.39352
 Alpha virt. eigenvalues --    0.41029   0.41303   0.43862   0.44568   0.47408
 Alpha virt. eigenvalues --    0.51878   0.53391   0.54400   0.55422   0.56235
 Alpha virt. eigenvalues --    0.57485   0.61597   0.67747   0.71777   0.73955
 Alpha virt. eigenvalues --    0.74772   0.75241   0.76431   0.76823   0.79137
 Alpha virt. eigenvalues --    0.81065   0.82171   0.84405   0.86233   0.86479
 Alpha virt. eigenvalues --    0.87800   0.89660   0.90888   0.93027   0.95351
 Alpha virt. eigenvalues --    0.95687   0.97922   0.98011   1.00032   1.01868
 Alpha virt. eigenvalues --    1.03562   1.04643   1.08075   1.10346   1.11879
 Alpha virt. eigenvalues --    1.13163   1.18257   1.21342   1.24010   1.25076
 Alpha virt. eigenvalues --    1.26962   1.28373   1.31913   1.34228   1.36420
 Alpha virt. eigenvalues --    1.38673   1.41817   1.46281   1.46528   1.53708
 Alpha virt. eigenvalues --    1.58134   1.59906   1.61850   1.70880   1.71891
 Alpha virt. eigenvalues --    1.81684   1.83424   1.84504   1.85950   1.87139
 Alpha virt. eigenvalues --    1.91652   1.98108   2.03205   2.08245   2.12044
 Alpha virt. eigenvalues --    2.15953   2.17546   2.21432   2.23610   2.24733
 Alpha virt. eigenvalues --    2.27884   2.29116   2.32729   2.34817   2.38043
 Alpha virt. eigenvalues --    2.42904   2.43983   2.47790   2.55166   2.56259
 Alpha virt. eigenvalues --    2.63037   2.65837   2.77004   2.86119   2.93513
 Alpha virt. eigenvalues --    2.97188   3.03201   3.13746   3.19433   3.28053
 Alpha virt. eigenvalues --    3.31615   3.38433   3.41202   3.48281   3.51351
 Alpha virt. eigenvalues --    3.63892   3.68250   3.73772   3.74306   3.81093
 Alpha virt. eigenvalues --    3.82213   3.83482   3.89344   3.95135   3.99292
 Alpha virt. eigenvalues --    4.04481   4.08318   4.11715   4.14867   4.16878
 Alpha virt. eigenvalues --    4.19217   4.27345   4.38979   4.39735   4.41837
 Alpha virt. eigenvalues --    4.44185   4.46586   4.58463   4.60284   4.64356
 Alpha virt. eigenvalues --    4.72283   4.73127   4.81556   4.89873   4.96405
 Alpha virt. eigenvalues --    4.97681   5.05801   5.15684   5.19814   5.22901
 Alpha virt. eigenvalues --    5.27341   5.30684   5.45662   5.46541   5.65924
 Alpha virt. eigenvalues --    5.73030   5.80813   5.84852   5.90075   5.97562
 Alpha virt. eigenvalues --    6.12435   6.27045   6.31783   6.40019   6.55282
 Alpha virt. eigenvalues --    6.62688   6.65577   6.70650   6.83301   6.89160
 Alpha virt. eigenvalues --    6.96150   7.09989   7.13773   7.20860   7.30777
 Alpha virt. eigenvalues --    7.41078   7.50014  13.75657  16.04866  16.94324
          Condensed to atoms (all electrons):
              1          2          3          4          5          6
     1  C    4.994397   0.416616   0.428076  -0.037225  -0.049876   0.262862
     2  N    0.416616   6.068792  -0.126625   0.402839   0.423635  -0.050835
     3  O    0.428076  -0.126625   8.289473   0.009592   0.002316  -0.044852
     4  H   -0.037225   0.402839   0.009592   0.554938  -0.075665   0.005754
     5  H   -0.049876   0.423635   0.002316  -0.075665   0.616964   0.004367
     6  H    0.262862  -0.050835  -0.044852   0.005754   0.004367   0.333480
 Mulliken atomic charges:
              1
     1  C   -0.014850
     2  N   -0.134422
     3  O   -0.557979
     4  H    0.139767
     5  H    0.078260
     6  H    0.489224
 Sum of Mulliken atomic charges =   0.00000
 Mulliken charges with hydrogens summed into heavy atoms:
              1
     1  C    0.474374
     2  N    0.083605
     3  O   -0.557979
 Sum of Mulliken charges with hydrogens summed into heavy atoms =   0.00000
 Electronic spatial extent (au):  <R**2>=            144.3953
 Charge=              0.0000 electrons
 Dipole moment (field-independent basis, Debye):
    X=              4.2345    Y=              1.2525    Z=              0.1701  Tot=              4.4191
 Quadrupole moment (field-independent basis, Debye-Ang):
   XX=            -18.4892   YY=            -15.2252   ZZ=            -19.1774
   XY=             -1.6272   XZ=             -0.1729   YZ=             -0.2537
 Traceless Quadrupole moment (field-independent basis, Debye-Ang):
   XX=             -0.8586   YY=              2.4054   ZZ=             -1.5468
   XY=             -1.6272   XZ=             -0.1729   YZ=             -0.2537
 Octapole moment (field-independent basis, Debye-Ang**2):
  XXX=             12.8579  YYY=             -0.5585  ZZZ=              1.0383  XYY=              2.7699
  XXY=              1.0767  XXZ=              0.2394  XZZ=             -1.1921  YZZ=             -0.0143
  YYZ=              0.6814  XYZ=             -0.3182
 Hexadecapole moment (field-independent basis, Debye-Ang**3):
 XXXX=           -110.0454 YYYY=            -36.3635 ZZZZ=            -19.3892 XXXY=              0.7489
 XXXZ=             -1.4188 YYYX=             -5.8856 YYYZ=             -0.4753 ZZZX=             -0.6824
 ZZZY=             -0.3604 XXYY=            -23.7795 XXZZ=            -25.2776 YYZZ=            -10.5986
 XXYZ=             -0.5745 YYXZ=             -0.0894 ZZXY=             -0.4196
 N-N= 7.118449277432D+01 E-N=-5.407035450917D+02  KE= 1.688201555742D+02
 Calling FoFJK, ICntrl=      5127 FMM=F ISym2X=0 I1Cent= 0 IOpClX= 0 NMat=1 NMatS=1 NMatT=0.
 FoFJK:  IHMeth= 1 ICntrl=  5127 DoSepK=T KAlg= 1 I1Cent= 0 FoldK=F
 -------------------------------------------------------------------
 Center     Atomic                   Forces (Hartrees/Bohr)
 Number     Number              X              Y              Z
 -------------------------------------------------------------------
      1        6           0.012818618   -0.020658892    0.002573415
      2        7          -0.008546174   -0.001081733    0.003506510
      3        8           0.004417493    0.019604693    0.001142766
      4        1          -0.001230190    0.008940581   -0.003968479
      5        1           0.001898013    0.001509757    0.000456948
      6        1          -0.009357759   -0.008314407   -0.003711161
 -------------------------------------------------------------------
 Cartesian Forces:  Max     0.020658892 RMS     0.008702339

 GradGradGradGradGradGradGradGradGradGradGradGradGradGradGradGradGradGrad
 Berny optimization.
 Internal  Forces:  Max     0.017404118 RMS     0.008386775
 Search for a local minimum.
 Step number   1 out of a maximum of   25
 All quantities printed in internal units (Hartrees-Bohrs-Radians)
 Mixed Optimization -- RFO/linear search
 Second derivative matrix not updated -- first step.
 The second derivative matrix:
                          R1        R2        R3        R4        R5
           R1           0.62387
           R2           0.00000   0.77521
           R3           0.00000   0.00000   0.33474
           R4           0.00000   0.00000   0.00000   0.44156
           R5           0.00000   0.00000   0.00000   0.00000   0.46092
           A1           0.00000   0.00000   0.00000   0.00000   0.00000
           A2           0.00000   0.00000   0.00000   0.00000   0.00000
           A3           0.00000   0.00000   0.00000   0.00000   0.00000
           A4           0.00000   0.00000   0.00000   0.00000   0.00000
           A5           0.00000   0.00000   0.00000   0.00000   0.00000
           A6           0.00000   0.00000   0.00000   0.00000   0.00000
           D1           0.00000   0.00000   0.00000   0.00000   0.00000
           D2           0.00000   0.00000   0.00000   0.00000   0.00000
           D3           0.00000   0.00000   0.00000   0.00000   0.00000
           D4           0.00000   0.00000   0.00000   0.00000   0.00000
                          A1        A2        A3        A4        A5
           A1           0.25000
           A2           0.00000   0.16000
           A3           0.00000   0.00000   0.16000
           A4           0.00000   0.00000   0.00000   0.16000
           A5           0.00000   0.00000   0.00000   0.00000   0.16000
           A6           0.00000   0.00000   0.00000   0.00000   0.00000
           D1           0.00000   0.00000   0.00000   0.00000   0.00000
           D2           0.00000   0.00000   0.00000   0.00000   0.00000
           D3           0.00000   0.00000   0.00000   0.00000   0.00000
           D4           0.00000   0.00000   0.00000   0.00000   0.00000
                          A6        D1        D2        D3        D4
           A6           0.16000
           D1           0.00000   0.02774
           D2           0.00000   0.00000   0.02774
           D3           0.00000   0.00000   0.00000   0.02774
           D4           0.00000   0.00000   0.00000   0.00000   0.02774
     Eigenvalues ---    0.02774   0.02777   0.02781   0.16000   0.16000
     Eigenvalues ---    0.16000   0.22001   0.33474   0.44156   0.46092
     Eigenvalues ---    0.62387   0.775211000.000001000.000001000.00000
 RFO step:  Lambda=-4.25388380D-03 EMin= 2.77408571D-02
 Linear search not attempted -- first point.
 Iteration  1 RMS(Cart)=  0.04571845 RMS(Int)=  0.00205221
 Iteration  2 RMS(Cart)=  0.00190640 RMS(Int)=  0.00055738
 Iteration  3 RMS(Cart)=  0.00000084 RMS(Int)=  0.00055738
 Variable       Old X    -DE/DX   Delta X   Delta X   Delta X     New X
                                 (Linear)    (Quad)   (Total)
    R1        2.49100  -0.01119   0.00000  -0.01781  -0.01781   2.47319
    R2        2.39280  -0.01508   0.00000  -0.01934  -0.01934   2.37346
    R3        2.08227  -0.00810   0.00000  -0.02390  -0.02390   2.05837
    R4        1.92968  -0.00930   0.00000  -0.02086  -0.02086   1.90882
    R5        1.90728   0.00239   0.00000   0.00514   0.00514   1.91242
    A1        2.06274   0.01449   0.00000   0.06500   0.06396   2.12670
    A2        2.06651   0.00298   0.00000   0.03052   0.02948   2.09599
    A3        2.15365  -0.01740   0.00000  -0.09357  -0.09462   2.05904
    A4        2.09216  -0.00039   0.00000  -0.00160  -0.00229   2.08988
    A5        2.11369   0.00002   0.00000   0.00090   0.00021   2.11390
    A6        2.07637   0.00045   0.00000   0.00352   0.00283   2.07920
    D1       -0.13409   0.00134   0.00000   0.04248   0.04250  -0.09160
    D2        3.05516  -0.00089   0.00000  -0.02707  -0.02704   3.02813
    D3        2.98290   0.00407   0.00000   0.12633   0.12630   3.10920
    D4       -0.11103   0.00184   0.00000   0.05679   0.05677  -0.05426
         Item               Value     Threshold  Converged?
 Maximum Force            0.017404     0.000450     NO 
 RMS     Force            0.008387     0.000300     NO 
 Maximum Displacement     0.089176     0.001800     NO 
 RMS     Displacement     0.045941     0.001200     NO 
 Predicted change in Energy=-2.212588D-03
 GradGradGradGradGradGradGradGradGradGradGradGradGradGradGradGradGradGrad

                          Input orientation:                          
 ---------------------------------------------------------------------
 Center     Atomic      Atomic             Coordinates (Angstroms)
 Number     Number       Type             X           Y           Z
 ---------------------------------------------------------------------
      1          6           0       -0.109932    0.411026    0.017813
      2          7           0        1.070889   -0.153265    0.008973
      3          8           0       -1.167581   -0.264111   -0.037481
      4          1           0        1.145267   -1.160242    0.036754
      5          1           0        1.915416    0.401803   -0.044271
      6          1           0       -0.196337    1.496837    0.018531
 ---------------------------------------------------------------------
                    Distance matrix (angstroms):
                    1          2          3          4          5
     1  C    0.000000
     2  N    1.308756   0.000000
     3  O    1.255981   2.241694   0.000000
     4  H    2.011161   1.010102   2.481496   0.000000
     5  H    2.026321   1.012008   3.154102   1.743468   0.000000
     6  H    1.089243   2.080575   2.011812   2.976626   2.379611
                    6
     6  H    0.000000
 Symmetry turned off by external request.
 Stoichiometry    CH3NO
 Framework group  C1[X(CH3NO)]
 Deg. of freedom    12
 Full point group                 C1      NOp   1
 Rotational constants (GHZ):     70.0473741     11.7436736     10.0625253
 Standard basis: Aug-CC-pVTZ (5D, 7F)
 Integral buffers will be    131072 words long.
 Raffenetti 2 integral format.
 Two-electron integral symmetry is turned off.
   207 basis functions,   297 primitive gaussians,   240 cartesian basis functions
    12 alpha electrons       12 beta electrons
       nuclear repulsion energy        71.4497589558 Hartrees.
 NAtoms=    6 NActive=    6 NUniq=    6 SFac= 7.50D-01 NAtFMM=   80 NAOKFM=F Big=F
 Standard density basis: Auto (5D, 7F)
   591 Density fitting functions
 One-electron integrals computed using PRISM.
 NBasis=   207 RedAO= T  NBF=   207
 NBsUse=   207 1.00D-06 NBFU=   207
 Initial guess read from the read-write file.
 B after Tr=     0.000000    0.000000    0.000000
         Rot=    1.000000    0.000000    0.000000    0.000000 Ang=   0.00 deg.
 Harris functional with IExCor=20419 diagonalized for initial guess.
 ExpMin= 2.53D-02 ExpMax= 1.53D+04 ExpMxC= 5.22D+02 IAcc=3 IRadAn=         5 AccDes= 0.00D+00
 HarFok:  IExCor=20419 AccDes= 0.00D+00 IRadAn=         5 IDoV= 1
 ScaDFX=  1.000000  1.000000  1.000000  1.000000
 FoFCou: FMM=F IPFlag=           0 FMFlag=      100000 FMFlg1=           0
         NFxFlg=           0 DoJE=T BraDBF=F KetDBF=T FulRan=T
         Omega=  0.000000  0.000000  1.000000  0.000000  0.000000 ICntrl=     500 IOpCl=  0
         NMat0=    1 NMatS0=    1 NMatT0=    0 NMatD0=    1 NMtDS0=    0 NMtDT0=    0
         I1Cent=           4 NGrid=           0.
 Symmetry not used in FoFCou.
 Requested convergence on RMS density matrix=1.00D-08 within 128 cycles.
 Requested convergence on MAX density matrix=1.00D-06.
 Requested convergence on             energy=1.00D-06.
 No special actions if energy rises.
 FoFJK:  IHMeth= 1 ICntrl=     0 DoSepK=T KAlg= 1 I1Cent= 0 FoldK=F
 FoFJK:  IHMeth= 1 ICntrl=     0 DoSepK=T KAlg= 1 I1Cent= 0 FoldK=F
 FoFJK:  IHMeth= 1 ICntrl=     0 DoSepK=T KAlg= 1 I1Cent= 0 FoldK=F
 FoFJK:  IHMeth= 1 ICntrl=     0 DoSepK=T KAlg= 1 I1Cent= 0 FoldK=F
 FoFJK:  IHMeth= 1 ICntrl=     0 DoSepK=T KAlg= 1 I1Cent= 0 FoldK=F
 EnCoef did     1 forward-backward iterations
 FoFJK:  IHMeth= 1 ICntrl=     0 DoSepK=T KAlg= 1 I1Cent= 0 FoldK=F
 FoFJK:  IHMeth= 1 ICntrl=     0 DoSepK=T KAlg= 1 I1Cent= 0 FoldK=F
 FoFJK:  IHMeth= 1 ICntrl=     0 DoSepK=T KAlg= 1 I1Cent= 0 FoldK=F
 FoFJK:  IHMeth= 1 ICntrl=     0 DoSepK=T KAlg= 1 I1Cent= 0 FoldK=F
 FoFJK:  IHMeth= 1 ICntrl=     0 DoSepK=T KAlg= 1 I1Cent= 0 FoldK=F
 FoFJK:  IHMeth= 1 ICntrl=     0 DoSepK=T KAlg= 1 I1Cent= 0 FoldK=F
 SCF Done:  E(RCAM-B3LYP) =  -169.891856818     A.U. after   11 cycles
             Convg  =    0.2378D-08             -V/T =  2.0058
 ExpMin= 2.53D-02 ExpMax= 1.53D+04 ExpMxC= 5.22D+02 IAcc=3 IRadAn=         5 AccDes= 0.00D+00
 HarFok:  IExCor=  205 AccDes= 0.00D+00 IRadAn=         5 IDoV=-2
 ScaDFX=  1.000000  1.000000  1.000000  1.000000
 Range of M.O.s used for correlation:     4   207
 NBasis=   207 NAE=    12 NBE=    12 NFC=     3 NFV=     0
 NROrb=    204 NOA=     9 NOB=     9 NVA=   195 NVB=   195

 **** Warning!!: The largest alpha MO coefficient is  0.38977711D+02

 Would need an additional   518800000 words for in-memory AO integral storage.
 Generating guess from densities on rwf.
 Convergence on wavefunction:    0.000001000000000
 Iteration     1 Dimension    40 NMult    40
 CISAX will form    40 AO SS matrices at one time.
 FoFJK:  IHMeth= 1 ICntrl=     0 DoSepK=T KAlg= 1 I1Cent= 0 FoldK=F
 FoFJK:  IHMeth= 1 ICntrl=     0 DoSepK=T KAlg= 1 I1Cent= 0 FoldK=F
 New state      8 was old state      9
 New state      9 was old state      8
 New state     18 was old state     20
 New state     19 was old state     18
 New state     20 was old state     19
 Iteration     2 Dimension    80 NMult    80
 FoFJK:  IHMeth= 1 ICntrl=     0 DoSepK=T KAlg= 1 I1Cent= 0 FoldK=F
 FoFJK:  IHMeth= 1 ICntrl=     0 DoSepK=T KAlg= 1 I1Cent= 0 FoldK=F
 New state     16 was old state     17
 New state     17 was old state     16
 New state     18 was old state     20
 New state     19 was old state     18
 New state     20 was old state     19
 Iteration     3 Dimension   120 NMult   120
 FoFJK:  IHMeth= 1 ICntrl=     0 DoSepK=T KAlg= 1 I1Cent= 0 FoldK=F
 FoFJK:  IHMeth= 1 ICntrl=     0 DoSepK=T KAlg= 1 I1Cent= 0 FoldK=F
 Iteration     4 Dimension   160 NMult   160
 FoFJK:  IHMeth= 1 ICntrl=     0 DoSepK=T KAlg= 1 I1Cent= 0 FoldK=F
 FoFJK:  IHMeth= 1 ICntrl=     0 DoSepK=T KAlg= 1 I1Cent= 0 FoldK=F
 Iteration     5 Dimension   200 NMult   200
 FoFJK:  IHMeth= 1 ICntrl=     0 DoSepK=T KAlg= 1 I1Cent= 0 FoldK=F
 FoFJK:  IHMeth= 1 ICntrl=     0 DoSepK=T KAlg= 1 I1Cent= 0 FoldK=F
 Iteration     6 Dimension   240 NMult   240
 FoFJK:  IHMeth= 1 ICntrl=     0 DoSepK=T KAlg= 1 I1Cent= 0 FoldK=F
 FoFJK:  IHMeth= 1 ICntrl=     0 DoSepK=T KAlg= 1 I1Cent= 0 FoldK=F
 Iteration     7 Dimension   276 NMult   276
 FoFJK:  IHMeth= 1 ICntrl=     0 DoSepK=T KAlg= 1 I1Cent= 0 FoldK=F
 FoFJK:  IHMeth= 1 ICntrl=     0 DoSepK=T KAlg= 1 I1Cent= 0 FoldK=F
 Iteration     8 Dimension   294 NMult   294
 FoFJK:  IHMeth= 1 ICntrl=     0 DoSepK=T KAlg= 1 I1Cent= 0 FoldK=F
 FoFJK:  IHMeth= 1 ICntrl=     0 DoSepK=T KAlg= 1 I1Cent= 0 FoldK=F
 Iteration     9 Dimension   308 NMult   308
 FoFJK:  IHMeth= 1 ICntrl=     0 DoSepK=T KAlg= 1 I1Cent= 0 FoldK=F
 FoFJK:  IHMeth= 1 ICntrl=     0 DoSepK=T KAlg= 1 I1Cent= 0 FoldK=F
 ***********************************************************************
 Excited states from <AA,BB:AA,BB> singles matrix:
 ***********************************************************************
 
 Ground to excited state transition electric dipole moments (Au):
       state          X           Y           Z        Dip. S.      Osc.
         1        -0.0055     -0.0076      0.0540      0.0030      0.0004
         2        -0.1451     -0.0187     -0.0458      0.0235      0.0037
         3         0.0249      0.0006     -0.2406      0.0585      0.0094
         4         0.2244      0.5260      0.0104      0.3272      0.0558
         5        -0.2734      0.0827     -0.0644      0.0857      0.0154
         6         0.4841     -0.3549     -0.0075      0.3604      0.0650
         7         1.0293      0.1194      0.0227      1.0742      0.1982
         8         0.0357      0.0519      0.1882      0.0394      0.0075
         9        -0.0573     -0.0187      0.2377      0.0601      0.0116
        10         0.2157      0.0118      0.0285      0.0475      0.0096
        11         0.0141     -0.2337     -0.0125      0.0550      0.0113
        12        -0.0572      0.0155     -0.0311      0.0045      0.0009
        13         0.0939      0.0183     -0.2272      0.0608      0.0132
        14         0.0104      0.0240      0.0806      0.0072      0.0016
        15         0.3937      0.0721     -0.0046      0.1603      0.0360
        16         0.1436     -0.2385     -0.0025      0.0775      0.0177
        17         0.0072      0.0039     -0.0522      0.0028      0.0006
        18        -0.1906      0.0120      0.0909      0.0447      0.0104
        19         0.0086     -0.0214      0.0857      0.0079      0.0018
        20        -0.2365     -0.0273     -0.0707      0.0617      0.0144
 Ground to excited state transition velocity dipole moments (Au):
       state          X           Y           Z        Dip. S.      Osc.
         1         0.0010      0.0015     -0.0112      0.0001      0.0004
         2         0.0347      0.0041      0.0108      0.0013      0.0038
         3        -0.0061      0.0000      0.0583      0.0034      0.0095
         4        -0.0573     -0.1344     -0.0026      0.0214      0.0557
         5         0.0734     -0.0224      0.0175      0.0062      0.0154
         6        -0.1308      0.0964      0.0021      0.0264      0.0650
         7        -0.2836     -0.0332     -0.0063      0.0816      0.1965
         8        -0.0101     -0.0148     -0.0529      0.0031      0.0072
         9         0.0166      0.0055     -0.0693      0.0051      0.0117
        10        -0.0635     -0.0027     -0.0088      0.0041      0.0090
        11        -0.0029      0.0717      0.0040      0.0052      0.0112
        12         0.0210     -0.0035      0.0100      0.0006      0.0012
        13        -0.0305     -0.0059      0.0745      0.0065      0.0134
        14        -0.0032     -0.0079     -0.0268      0.0008      0.0016
        15        -0.1331     -0.0227      0.0015      0.0182      0.0361
        16        -0.0502      0.0815      0.0005      0.0092      0.0178
        17        -0.0020     -0.0018      0.0160      0.0003      0.0005
        18         0.0646     -0.0031     -0.0322      0.0052      0.0100
        19        -0.0027      0.0074     -0.0268      0.0008      0.0015
        20         0.0818      0.0103      0.0254      0.0074      0.0142
 Ground to excited state transition magnetic dipole moments (Au):
       state          X           Y           Z
         1        -0.9077     -0.3651     -0.0583
         2        -0.0491     -0.0929      0.2919
         3        -0.0050     -0.3780     -0.0552
         4        -0.0050      0.0073     -0.0579
         5        -0.0122     -0.0500     -0.0028
         6        -0.0343      0.0087     -0.0900
         7        -0.0700     -0.0375      0.6624
         8        -0.0682      0.1055      0.0535
         9         0.0010     -0.3776     -0.0476
        10         0.0199     -0.0585     -0.0345
        11         0.0342      0.0382     -0.1853
        12         0.0207     -0.0159     -0.3192
        13        -0.1136      0.3141      0.1181
        14         0.0810      0.5044     -0.0150
        15        -0.0417      0.0333     -0.1498
        16        -0.0030     -0.0098      0.1107
        17        -0.3168      0.2131      0.0233
        18         0.3122     -0.3369     -0.0675
        19        -0.3794      0.2737     -0.0026
        20        -0.7340      0.8603     -0.1328
 <0|del|b> * <b|rxdel|0> + <0|del|b> * <b|delr+rdel|0>
 Rotatory Strengths (R) in cgs (10**-40 erg-esu-cm/Gauss)
       state          XX          YY          ZZ    R(velocity)
         1         0.2796     -0.8814     -2.4696     -1.0238
 Total R(velocity) tensor for State=          1
                 1             2             3 
      1   0.279623D+00  0.788916D+00  0.132144D+00
      2   0.274992D+01 -0.881417D+00  0.134502D+00
      3  -0.161918D+02 -0.725125D+01 -0.246959D+01
         2         6.5841     -1.2388     -2.1489      1.0655
 Total R(velocity) tensor for State=          2
                 1             2             3 
      1   0.658406D+01  0.837615D+01 -0.243474D+02
      2   0.592317D+01 -0.123878D+01 -0.185433D+02
      3   0.165730D+00  0.422174D+01 -0.214889D+01
         3        -7.7053     -1.4593     -0.1237     -3.0961
 Total R(velocity) tensor for State=          3
                 1             2             3 
      1  -0.770529D+01 -0.822180D+01 -0.811348D+00
      2  -0.796754D+01 -0.145928D+01 -0.834523D+00
      3  -0.119508D+01  0.212109D+01 -0.123698D+00
         4        -0.6795      1.3995     -2.2143     -0.4981
 Total R(velocity) tensor for State=          4
                 1             2             3 
      1  -0.679531D+00  0.129205D+01 -0.526997D+02
      2  -0.270481D+01  0.139950D+01 -0.130154D+02
      3   0.702137D+00 -0.256881D+00 -0.221434D+01
         5         0.6147     -6.9567      6.8182      0.1587
 Total R(velocity) tensor for State=          5
                 1             2             3 
      1   0.614662D+00  0.925058D+01  0.926387D+01
      2  -0.926448D+00 -0.695672D+01 -0.502548D+01
      3  -0.164597D+00  0.479160D+01  0.681823D+01
         6         0.6612     12.3249      0.4298      4.4720
 Total R(velocity) tensor for State=          6
                 1             2             3 
      1   0.661226D+00  0.972781D-01  0.365569D+02
      2   0.912109D+01  0.123249D+02  0.216649D+01
      3   0.996580D+01  0.135087D+02  0.429766D+00
         7        -4.4864     27.0653     20.6300     14.4029
 Total R(velocity) tensor for State=          7
                 1             2             3 
      1  -0.448644D+01 -0.278761D+02  0.348581D+03
      2  -0.419941D+01  0.270653D+02  0.464017D+02
      3  -0.376499D+01  0.282486D+02  0.206300D+02
         8        -8.9240     -1.1398      0.9494     -3.0381
 Total R(velocity) tensor for State=          8
                 1             2             3 
      1  -0.892401D+01  0.863053D+00  0.146780D+01
      2  -0.444662D+00 -0.113978D+01  0.403151D+00
      3  -0.279924D+01 -0.148190D+01  0.949420D+00
         9         2.0059      1.8861     -0.8560      1.0120
 Total R(velocity) tensor for State=          9
                 1             2             3 
      1   0.200594D+01  0.110478D+02  0.135242D+01
      2   0.221533D+01  0.188614D+01  0.679223D+00
      3   0.256732D+01 -0.186259D+02 -0.855968D+00
        10         1.1269     -1.5309     -1.4559     -0.6200
 Total R(velocity) tensor for State=         10
                 1             2             3 
      1   0.112689D+01 -0.638654D+01 -0.614408D+01
      2   0.946242D+00 -0.153091D+01 -0.633207D+01
      3  -0.202796D+00  0.951800D+01 -0.145595D+01
        11         3.5569      0.1851      0.6062      1.4494
 Total R(velocity) tensor for State=         11
                 1             2             3 
      1   0.355688D+01  0.336763D+00 -0.344522D+01
      2  -0.152604D+01  0.185142D+00 -0.437308D+01
      3   0.260931D+01  0.705195D-01  0.606165D+00
        12        -3.7197     -2.7915      0.4699     -2.0138
 Total R(velocity) tensor for State=         12
                 1             2             3 
      1  -0.371970D+01 -0.451625D+00  0.764364D+01
      2   0.108423D+01 -0.279155D+01 -0.324417D+01
      3   0.410879D+00  0.383053D+01  0.469936D+00
        13         9.7883     11.0786      1.7608      7.5426
 Total R(velocity) tensor for State=         13
                 1             2             3 
      1   0.978826D+01  0.204041D+02  0.563427D+01
      2  -0.437963D+01  0.110786D+02 -0.909956D+00
      3   0.371879D+01  0.298835D+01  0.176083D+01
        14        -5.6365      1.2972     -3.9645     -2.7679
 Total R(velocity) tensor for State=         14
                 1             2             3 
      1  -0.563653D+01  0.242283D+01 -0.367298D-01
      2  -0.274653D-01  0.129718D+01 -0.381090D+00
      3   0.660805D+01  0.106828D+02 -0.396445D+01
        15        -1.2794      4.0614      6.7906      3.1909
 Total R(velocity) tensor for State=         15
                 1             2             3 
      1  -0.127941D+01  0.666581D+01 -0.124460D+02
      2  -0.827888D+00  0.406141D+01 -0.118265D+02
      3   0.713391D+00 -0.372678D+01  0.679064D+01
        16         0.8139     -1.0270     -1.0123     -0.4085
 Total R(velocity) tensor for State=         16
                 1             2             3 
      1   0.813920D+00  0.488574D+00  0.206880D+01
      2  -0.153872D+01 -0.102704D+01  0.130645D+02
      3  -0.287726D+01 -0.176551D+01 -0.101234D+01
        17        -1.6768      2.4889      0.4125      0.4082
 Total R(velocity) tensor for State=         17
                 1             2             3 
      1  -0.167679D+01  0.735143D+00 -0.119768D+00
      2  -0.261143D+01  0.248890D+01 -0.315007D-01
      3   0.484096D+01 -0.154429D+01  0.412454D+00
        18        -1.5470     35.8073     13.3163     15.8588
 Total R(velocity) tensor for State=         18
                 1             2             3 
      1  -0.154702D+01  0.182763D+02 -0.485900D+01
      2  -0.917325D+01  0.358073D+02 -0.218278D+02
      3   0.565248D+01 -0.206736D+02  0.133163D+02
        19         3.8202      0.1911      2.3290      2.1134
 Total R(velocity) tensor for State=         19
                 1             2             3 
      1   0.382017D+01 -0.272627D-01 -0.397251D+00
      2   0.425466D+01  0.191101D+00 -0.381478D+00
      3  -0.737409D+01  0.572831D+01  0.232896D+01
        20         8.6772    -83.0312    -35.9433    -36.7658
 Total R(velocity) tensor for State=         20
                 1             2             3 
      1   0.867718D+01 -0.794751D+02  0.437331D+01
      2   0.162333D+02 -0.830312D+02 -0.184840D+02
      3   0.144031D+02 -0.255536D+02 -0.359433D+02
 1/2[<0|r|b>*<b|rxdel|0> + (<0|rxdel|b>*<b|r|0>)*]
 Rotatory Strengths (R) in cgs (10**-40 erg-esu-cm/Gauss)
       state          XX          YY          ZZ     R(length)     R(au)
         1        -3.5377     -1.9685      2.2248     -1.0938     -0.0023
         2        -5.0335     -1.2318      9.4561      1.0636      0.0023
         3         0.0881      0.1605     -9.3976     -3.0497     -0.0065
         4         0.7971     -2.7007      0.4238     -0.4933     -0.0010
         5        -2.3517      2.9251     -0.1267      0.1489      0.0003
         6        11.7315      2.1931     -0.4782      4.4822      0.0095
         7        50.9225      3.1693    -10.6525     14.4797      0.0307
         8         1.7191     -3.8709     -7.1250     -3.0923     -0.0066
         9         0.0417     -4.9806      7.9949      1.0187      0.0022
        10        -3.0383      0.4866      0.6959     -0.6186     -0.0013
        11        -0.3422      6.3157     -1.6329      1.4469      0.0031
        12         0.8383      0.1743     -7.0100     -1.9991     -0.0042
        13         7.5424     -4.0572     18.9784      7.4879      0.0159
        14        -0.5970     -8.5519      0.8546     -2.7648     -0.0059
        15        11.6006     -1.6990     -0.4915      3.1367      0.0067
        16         0.3046     -1.6571      0.1921     -0.3868     -0.0008
        17         1.6236     -0.5831      0.8594      0.6333      0.0013
        18        42.0804      2.8699      4.3385     16.4296      0.0348
        19         2.2957      4.1502      0.1569      2.2009      0.0047
        20      -122.7694     16.6196     -6.6392    -37.5963     -0.0797
  1/2[<0|del|b>*<b|r|0> + (<0|r|b>*<b|del|0>)*] (Au)
       state          X           Y           Z        Dip. S.   Osc.(frdel)
         1         0.0000      0.0000     -0.0006      0.0006      0.0004
         2        -0.0050     -0.0001     -0.0005      0.0056      0.0037
         3        -0.0002      0.0000     -0.0140      0.0142      0.0095
         4        -0.0129     -0.0707      0.0000      0.0836      0.0557
         5        -0.0201     -0.0019     -0.0011      0.0230      0.0154
         6        -0.0633     -0.0342      0.0000      0.0975      0.0650
         7        -0.2919     -0.0040     -0.0001      0.2960      0.1973
         8        -0.0004     -0.0008     -0.0100      0.0111      0.0074
         9        -0.0010     -0.0001     -0.0165      0.0175      0.0117
        10        -0.0137      0.0000     -0.0003      0.0140      0.0093
        11         0.0000     -0.0168     -0.0001      0.0169      0.0112
        12        -0.0012     -0.0001     -0.0003      0.0016      0.0010
        13        -0.0029     -0.0001     -0.0169      0.0199      0.0133
        14         0.0000     -0.0002     -0.0022      0.0024      0.0016
        15        -0.0524     -0.0016      0.0000      0.0541      0.0360
        16        -0.0072     -0.0194      0.0000      0.0266      0.0178
        17         0.0000      0.0000     -0.0008      0.0009      0.0006
        18        -0.0123      0.0000     -0.0029      0.0153      0.0102
        19         0.0000     -0.0002     -0.0023      0.0025      0.0016
        20        -0.0193     -0.0003     -0.0018      0.0214      0.0143
 Ground to excited state transition densities written to RWF  633

 Excitation energies and oscillator strengths:
 
 Excited state symmetry could not be determined.
 Excited State   1:      Singlet-?Sym    5.2548 eV  235.94 nm  f=0.0004  <S**2>=0.000
      12 -> 16         0.65279
      12 -> 17        -0.22186
      12 -> 22         0.10814
 
 Excited state symmetry could not be determined.
 Excited State   2:      Singlet-?Sym    6.4352 eV  192.67 nm  f=0.0037  <S**2>=0.000
      11 -> 13         0.11266
      11 -> 16        -0.18396
      12 -> 13         0.61889
      12 -> 15         0.16140
      12 -> 19        -0.10943
 
 Excited state symmetry could not be determined.
 Excited State   3:      Singlet-?Sym    6.5807 eV  188.40 nm  f=0.0094  <S**2>=0.000
      11 -> 13         0.65530
      11 -> 18         0.14160
      11 -> 19        -0.10472
      12 -> 13        -0.10072
 
 Excited state symmetry could not be determined.
 Excited State   4:      Singlet-?Sym    6.9613 eV  178.10 nm  f=0.0558  <S**2>=0.000
      11 -> 16        -0.10659
      12 -> 14         0.65051
      12 -> 18         0.10819
      12 -> 21        -0.16686
 
 Excited state symmetry could not be determined.
 Excited State   5:      Singlet-?Sym    7.3182 eV  169.42 nm  f=0.0154  <S**2>=0.000
      11 -> 14         0.59064
      11 -> 15         0.11208
      11 -> 16         0.15047
      11 -> 21        -0.19651
      12 -> 15         0.19592
 
 Excited state symmetry could not be determined.
 Excited State   6:      Singlet-?Sym    7.3635 eV  168.38 nm  f=0.0650  <S**2>=0.000
      11 -> 14         0.26220
      11 -> 16        -0.28183
      11 -> 17         0.13577
      12 -> 14        -0.11529
      12 -> 15        -0.47212
      12 -> 18         0.18922
      12 -> 19         0.16805
      12 -> 23         0.10476
 
 Excited state symmetry could not be determined.
 Excited State   7:      Singlet-?Sym    7.5304 eV  164.64 nm  f=0.1982  <S**2>=0.000
      11 -> 16        -0.46984
      11 -> 17         0.23479
      12 -> 13        -0.28797
      12 -> 15         0.32520
 This state for optimization and/or second-order correction.
 Copying the excited state density for this state as the 1-particle RhoCI density.
 
 Excited state symmetry could not be determined.
 Excited State   8:      Singlet-?Sym    7.8136 eV  158.68 nm  f=0.0075  <S**2>=0.000
      12 -> 16         0.22518
      12 -> 17         0.65821
 
 Excited state symmetry could not be determined.
 Excited State   9:      Singlet-?Sym    7.9034 eV  156.88 nm  f=0.0116  <S**2>=0.000
      11 -> 14        -0.13298
      11 -> 15         0.64155
      11 -> 19        -0.12000
      11 -> 23        -0.16410
 
 Excited state symmetry could not be determined.
 Excited State  10:      Singlet-?Sym    8.2953 eV  149.46 nm  f=0.0096  <S**2>=0.000
      11 -> 16         0.27644
      11 -> 17         0.62976
 
 Excited state symmetry could not be determined.
 Excited State  11:      Singlet-?Sym    8.3814 eV  147.93 nm  f=0.0113  <S**2>=0.000
      12 -> 15         0.25958
      12 -> 18         0.27553
      12 -> 19         0.55886
 
 Excited state symmetry could not be determined.
 Excited State  12:      Singlet-?Sym    8.6306 eV  143.66 nm  f=0.0009  <S**2>=0.000
      11 -> 16         0.13456
      12 -> 14        -0.13420
      12 -> 18         0.47309
      12 -> 19        -0.27556
      12 -> 20         0.36780
 
 Excited state symmetry could not be determined.
 Excited State  13:      Singlet-?Sym    8.8373 eV  140.30 nm  f=0.0132  <S**2>=0.000
      11 -> 15         0.10662
      11 -> 18         0.46781
      11 -> 19         0.44117
      11 -> 24        -0.18513
 
 Excited state symmetry could not be determined.
 Excited State  14:      Singlet-?Sym    8.9659 eV  138.28 nm  f=0.0016  <S**2>=0.000
      11 -> 13         0.12287
      11 -> 18        -0.38740
      11 -> 19         0.47056
      11 -> 20        -0.26318
 
 Excited state symmetry could not be determined.
 Excited State  15:      Singlet-?Sym    9.1711 eV  135.19 nm  f=0.0360  <S**2>=0.000
      12 -> 13         0.12358
      12 -> 18        -0.30303
      12 -> 19         0.12492
      12 -> 20         0.51029
      12 -> 21        -0.21419
      12 -> 23         0.18860
 
 Excited state symmetry could not be determined.
 Excited State  16:      Singlet-?Sym    9.3429 eV  132.70 nm  f=0.0177  <S**2>=0.000
      12 -> 14         0.16298
      12 -> 19         0.11980
      12 -> 20         0.23121
      12 -> 21         0.60056
      12 -> 24         0.10915
 
 Excited state symmetry could not be determined.
 Excited State  17:      Singlet-?Sym    9.3966 eV  131.95 nm  f=0.0006  <S**2>=0.000
      10 -> 16         0.18864
      11 -> 13         0.15972
      11 -> 18        -0.14584
      11 -> 19         0.11058
      11 -> 20         0.52326
      11 -> 21        -0.11149
      11 -> 23        -0.11559
      11 -> 24         0.12323
      12 -> 23        -0.17692
      12 -> 24         0.10369
 
 Excited state symmetry could not be determined.
 Excited State  18:      Singlet-?Sym    9.4547 eV  131.14 nm  f=0.0104  <S**2>=0.000
      10 -> 16        -0.22620
      11 -> 20         0.22306
      12 -> 21         0.10870
      12 -> 22         0.30432
      12 -> 23         0.37939
      12 -> 24        -0.30094
 
 Excited state symmetry could not be determined.
 Excited State  19:      Singlet-?Sym    9.4720 eV  130.90 nm  f=0.0018  <S**2>=0.000
      10 -> 16         0.24374
      11 -> 20        -0.17063
      12 -> 22         0.59111
      12 -> 23        -0.11785
 
 Excited state symmetry could not be determined.
 Excited State  20:      Singlet-?Sym    9.5114 eV  130.35 nm  f=0.0144  <S**2>=0.000
       9 -> 16        -0.13650
      10 -> 16         0.49381
      10 -> 17        -0.16906
      12 -> 21         0.10032
      12 -> 22        -0.17139
      12 -> 23         0.27943
      12 -> 24        -0.20251
 SavETr:  write IOETrn=   770 NScale= 10 NData=  16 NLR=1 LETran=     370.
 FoFJK:  IHMeth= 1 ICntrl=     0 DoSepK=T KAlg= 1 I1Cent= 0 FoldK=F
 FoFJK:  IHMeth= 1 ICntrl=     0 DoSepK=T KAlg= 1 I1Cent= 0 FoldK=F
          IDoAtm=111111
          Differentiating once with respect to electric field.
                with respect to dipole field.
          Differentiating once with respect to nuclear coordinates.
          There are     1 degrees of freedom in the 1st order CPHF.  IDoFFX=0.
 FoFJK:  IHMeth= 1 ICntrl=     0 DoSepK=T KAlg= 1 I1Cent= 0 FoldK=F
 LinEq1:  Iter=  0 NonCon=     1 RMS=2.37D-02 Max=5.48D-01
 AX will form     1 AO Fock derivatives at one time.
 FoFJK:  IHMeth= 1 ICntrl=     0 DoSepK=T KAlg= 1 I1Cent= 0 FoldK=F
 LinEq1:  Iter=  1 NonCon=     1 RMS=1.17D-02 Max=2.17D-01
 FoFJK:  IHMeth= 1 ICntrl=     0 DoSepK=T KAlg= 1 I1Cent= 0 FoldK=F
 LinEq1:  Iter=  2 NonCon=     1 RMS=7.29D-03 Max=1.30D-01
 FoFJK:  IHMeth= 1 ICntrl=     0 DoSepK=T KAlg= 1 I1Cent= 0 FoldK=F
 LinEq1:  Iter=  3 NonCon=     1 RMS=2.14D-03 Max=4.07D-02
 FoFJK:  IHMeth= 1 ICntrl=     0 DoSepK=T KAlg= 1 I1Cent= 0 FoldK=F
 LinEq1:  Iter=  4 NonCon=     1 RMS=9.02D-04 Max=1.37D-02
 FoFJK:  IHMeth= 1 ICntrl=     0 DoSepK=T KAlg= 1 I1Cent= 0 FoldK=F
 LinEq1:  Iter=  5 NonCon=     1 RMS=2.86D-04 Max=5.04D-03
 FoFJK:  IHMeth= 1 ICntrl=     0 DoSepK=T KAlg= 1 I1Cent= 0 FoldK=F
 LinEq1:  Iter=  6 NonCon=     1 RMS=7.23D-05 Max=1.00D-03
 FoFJK:  IHMeth= 1 ICntrl=     0 DoSepK=T KAlg= 1 I1Cent= 0 FoldK=F
 LinEq1:  Iter=  7 NonCon=     1 RMS=1.71D-05 Max=2.69D-04
 FoFJK:  IHMeth= 1 ICntrl=     0 DoSepK=T KAlg= 1 I1Cent= 0 FoldK=F
 LinEq1:  Iter=  8 NonCon=     1 RMS=3.59D-06 Max=8.09D-05
 FoFJK:  IHMeth= 1 ICntrl=     0 DoSepK=T KAlg= 1 I1Cent= 0 FoldK=F
 LinEq1:  Iter=  9 NonCon=     1 RMS=9.22D-07 Max=2.33D-05
 FoFJK:  IHMeth= 1 ICntrl=     0 DoSepK=T KAlg= 1 I1Cent= 0 FoldK=F
 LinEq1:  Iter= 10 NonCon=     1 RMS=2.19D-07 Max=3.53D-06
 FoFJK:  IHMeth= 1 ICntrl=     0 DoSepK=T KAlg= 1 I1Cent= 0 FoldK=F
 LinEq1:  Iter= 11 NonCon=     1 RMS=3.93D-08 Max=3.87D-07
 FoFJK:  IHMeth= 1 ICntrl=     0 DoSepK=T KAlg= 1 I1Cent= 0 FoldK=F
 LinEq1:  Iter= 12 NonCon=     1 RMS=7.60D-09 Max=7.62D-08
 FoFJK:  IHMeth= 1 ICntrl=     0 DoSepK=T KAlg= 1 I1Cent= 0 FoldK=F
 LinEq1:  Iter= 13 NonCon=     1 RMS=1.40D-09 Max=1.82D-08
 FoFJK:  IHMeth= 1 ICntrl=     0 DoSepK=T KAlg= 1 I1Cent= 0 FoldK=F
 LinEq1:  Iter= 14 NonCon=     1 RMS=3.95D-10 Max=4.71D-09
 FoFJK:  IHMeth= 1 ICntrl=     0 DoSepK=T KAlg= 1 I1Cent= 0 FoldK=F
 LinEq1:  Iter= 15 NonCon=     0 RMS=6.47D-11 Max=7.81D-10
 Linear equations converged to 1.000D-10 1.000D-09 after    15 iterations.
 FoFJK:  IHMeth= 1 ICntrl=     0 DoSepK=T KAlg= 1 I1Cent= 0 FoldK=F
 End of Minotr Frequency-dependent properties file   721 does not exist.
 End of Minotr Frequency-dependent properties file   722 does not exist.
 Calling FoFJK, ICntrl=      5127 FMM=F ISym2X=0 I1Cent= 0 IOpClX= 0 NMat=1 NMatS=1 NMatT=0.
 FoFJK:  IHMeth= 1 ICntrl=  5127 DoSepK=T KAlg= 1 I1Cent= 0 FoldK=F
 -------------------------------------------------------------------
 Center     Atomic                   Forces (Hartrees/Bohr)
 Number     Number              X              Y              Z
 -------------------------------------------------------------------
      1        6          -0.007846645    0.048431297    0.006271493
      2        7           0.028087395   -0.015335120   -0.002043163
      3        8          -0.023808718   -0.029740665   -0.003577128
      4        1           0.000279901   -0.002520873    0.000564664
      5        1          -0.000441689   -0.003036600   -0.000511772
[...]
      12 -> 24         0.10999
      12 -> 26         0.10013
 
 Excited state symmetry could not be determined.
 Excited State  18:      Singlet-?Sym    9.3759 eV  132.24 nm  f=0.0000  <S**2>=0.000
      10 -> 16        -0.26274
      11 -> 13         0.16596
      11 -> 18        -0.14849
      11 -> 19         0.14256
      11 -> 20         0.55785
 
 Excited state symmetry could not be determined.
 Excited State  19:      Singlet-?Sym    9.4661 eV  130.98 nm  f=0.0191  <S**2>=0.000
      12 -> 21         0.16439
      12 -> 23         0.50701
      12 -> 24        -0.39460
      12 -> 26         0.11892
 
 Excited state symmetry could not be determined.
 Excited State  20:      Singlet-?Sym    9.4741 eV  130.87 nm  f=0.0040  <S**2>=0.000
      12 -> 22         0.68699
 SavETr:  write IOETrn=   770 NScale= 10 NData=  16 NLR=1 LETran=     370.
 FoFJK:  IHMeth= 1 ICntrl=     0 DoSepK=T KAlg= 1 I1Cent= 0 FoldK=F
 FoFJK:  IHMeth= 1 ICntrl=     0 DoSepK=T KAlg= 1 I1Cent= 0 FoldK=F
          IDoAtm=111111
          Differentiating once with respect to electric field.
                with respect to dipole field.
          Differentiating once with respect to nuclear coordinates.
          There are     1 degrees of freedom in the 1st order CPHF.  IDoFFX=0.
 FoFJK:  IHMeth= 1 ICntrl=     0 DoSepK=T KAlg= 1 I1Cent= 0 FoldK=F
 LinEq1:  Iter=  0 NonCon=     1 RMS=2.96D-02 Max=8.15D-01
 AX will form     1 AO Fock derivatives at one time.
 FoFJK:  IHMeth= 1 ICntrl=     0 DoSepK=T KAlg= 1 I1Cent= 0 FoldK=F
 LinEq1:  Iter=  1 NonCon=     1 RMS=1.36D-02 Max=2.17D-01
 FoFJK:  IHMeth= 1 ICntrl=     0 DoSepK=T KAlg= 1 I1Cent= 0 FoldK=F
 LinEq1:  Iter=  2 NonCon=     1 RMS=7.87D-03 Max=1.33D-01
 FoFJK:  IHMeth= 1 ICntrl=     0 DoSepK=T KAlg= 1 I1Cent= 0 FoldK=F
 LinEq1:  Iter=  3 NonCon=     1 RMS=2.32D-03 Max=4.63D-02
 FoFJK:  IHMeth= 1 ICntrl=     0 DoSepK=T KAlg= 1 I1Cent= 0 FoldK=F
 LinEq1:  Iter=  4 NonCon=     1 RMS=1.25D-03 Max=2.26D-02
 FoFJK:  IHMeth= 1 ICntrl=     0 DoSepK=T KAlg= 1 I1Cent= 0 FoldK=F
 LinEq1:  Iter=  5 NonCon=     1 RMS=3.63D-04 Max=6.13D-03
 FoFJK:  IHMeth= 1 ICntrl=     0 DoSepK=T KAlg= 1 I1Cent= 0 FoldK=F
 LinEq1:  Iter=  6 NonCon=     1 RMS=8.36D-05 Max=9.55D-04
 FoFJK:  IHMeth= 1 ICntrl=     0 DoSepK=T KAlg= 1 I1Cent= 0 FoldK=F
 LinEq1:  Iter=  7 NonCon=     1 RMS=1.76D-05 Max=2.12D-04
 FoFJK:  IHMeth= 1 ICntrl=     0 DoSepK=T KAlg= 1 I1Cent= 0 FoldK=F
 LinEq1:  Iter=  8 NonCon=     1 RMS=3.25D-06 Max=3.44D-05
 FoFJK:  IHMeth= 1 ICntrl=     0 DoSepK=T KAlg= 1 I1Cent= 0 FoldK=F
 LinEq1:  Iter=  9 NonCon=     1 RMS=6.42D-07 Max=7.55D-06
 FoFJK:  IHMeth= 1 ICntrl=     0 DoSepK=T KAlg= 1 I1Cent= 0 FoldK=F
 LinEq1:  Iter= 10 NonCon=     1 RMS=1.02D-07 Max=1.07D-06
 FoFJK:  IHMeth= 1 ICntrl=     0 DoSepK=T KAlg= 1 I1Cent= 0 FoldK=F
 LinEq1:  Iter= 11 NonCon=     1 RMS=1.83D-08 Max=1.96D-07
 FoFJK:  IHMeth= 1 ICntrl=     0 DoSepK=T KAlg= 1 I1Cent= 0 FoldK=F
 LinEq1:  Iter= 12 NonCon=     1 RMS=4.16D-09 Max=5.82D-08
 FoFJK:  IHMeth= 1 ICntrl=     0 DoSepK=T KAlg= 1 I1Cent= 0 FoldK=F
 LinEq1:  Iter= 13 NonCon=     1 RMS=6.76D-10 Max=1.92D-08
 FoFJK:  IHMeth= 1 ICntrl=     0 DoSepK=T KAlg= 1 I1Cent= 0 FoldK=F
 LinEq1:  Iter= 14 NonCon=     1 RMS=1.58D-10 Max=4.00D-09
 FoFJK:  IHMeth= 1 ICntrl=     0 DoSepK=T KAlg= 1 I1Cent= 0 FoldK=F
 LinEq1:  Iter= 15 NonCon=     0 RMS=3.22D-11 Max=4.33D-10
 Linear equations converged to 1.000D-10 1.000D-09 after    15 iterations.
 FoFJK:  IHMeth= 1 ICntrl=     0 DoSepK=T KAlg= 1 I1Cent= 0 FoldK=F
 End of Minotr Frequency-dependent properties file   721 does not exist.
 End of Minotr Frequency-dependent properties file   722 does not exist.
 Calling FoFJK, ICntrl=      5127 FMM=F ISym2X=0 I1Cent= 0 IOpClX= 0 NMat=1 NMatS=1 NMatT=0.
 FoFJK:  IHMeth= 1 ICntrl=  5127 DoSepK=T KAlg= 1 I1Cent= 0 FoldK=F
 -------------------------------------------------------------------
 Center     Atomic                   Forces (Hartrees/Bohr)
 Number     Number              X              Y              Z
 -------------------------------------------------------------------
      1        6          -0.000042312   -0.000065713    0.000002706
      2        7           0.000013996    0.000004388    0.000019041
      3        8           0.000052260    0.000045782   -0.000003958
      4        1          -0.000010490    0.000002641   -0.000006341
      5        1          -0.000008288    0.000009663   -0.000009389
      6        1          -0.000005166    0.000003239   -0.000002059
 -------------------------------------------------------------------
 Cartesian Forces:  Max     0.000065713 RMS     0.000025804

 GradGradGradGradGradGradGradGradGradGradGradGradGradGradGradGradGradGrad
 Berny optimization.
 Using GEDIIS/GDIIS optimizer.
 Internal  Forces:  Max     0.000069577 RMS     0.000019861
 Search for a local minimum.
 Step number  11 out of a maximum of   25
 All quantities printed in internal units (Hartrees-Bohrs-Radians)
 Mixed Optimization -- En-DIIS/RFO-DIIS
 Swaping is turned off.
 Update second derivatives using D2CorX and points    1    3    2    4    5
                                                      6    7    8    9   10
                                                     11
 DE= -2.98D-08 DEPred=-7.34D-08 R= 4.06D-01
 Trust test= 4.06D-01 RLast= 4.27D-03 DXMaxT set to 2.52D-01
 The second derivative matrix:
                          R1        R2        R3        R4        R5
           R1           0.89949
           R2           0.53760   0.92076
           R3           0.03214   0.04994   0.34665
           R4           0.04180   0.03039   0.00405   0.44644
           R5          -0.02603  -0.02726  -0.00248  -0.00177   0.46287
           A1          -0.19191  -0.18711  -0.01682  -0.01511   0.01324
           A2           0.06844   0.01735   0.00949   0.00709  -0.00471
           A3           0.15581   0.19953   0.01262   0.01428  -0.01190
           A4          -0.01184  -0.02559  -0.00055  -0.00229   0.00174
           A5           0.04684   0.01779   0.00461   0.00235  -0.00232
           A6          -0.02952   0.00786  -0.00468  -0.00112   0.00077
           D1          -0.01429  -0.01843   0.00048  -0.00091   0.00096
           D2           0.00367  -0.00056  -0.00178   0.00028   0.00147
           D3          -0.00556   0.00776   0.00313  -0.00027  -0.00153
           D4           0.01240   0.02564   0.00087   0.00092  -0.00102
                          A1        A2        A3        A4        A5
           A1           0.33794
           A2          -0.03474   0.14947
           A3          -0.09115   0.03598   0.23892
           A4           0.01066   0.00092  -0.01307   0.15793
           A5          -0.01824  -0.00037   0.01625  -0.00111   0.16165
           A6           0.00536  -0.00141  -0.00283   0.00333  -0.00110
           D1           0.00771  -0.00468  -0.00096   0.00320  -0.00216
           D2           0.00304  -0.00148  -0.00571   0.00152  -0.00024
           D3          -0.00745   0.00121   0.01294  -0.00103   0.00029
           D4          -0.01211   0.00441   0.00819  -0.00271   0.00221
                          A6        D1        D2        D3        D4
           A6           0.15759
           D1          -0.00102   0.02169
           D2          -0.00232  -0.00881   0.01676
           D3           0.00189  -0.00227  -0.00707   0.03426
           D4           0.00059  -0.00503  -0.00925   0.00171   0.02524
     Eigenvalues ---    0.00366   0.02616   0.03704   0.12805   0.15104
     Eigenvalues ---    0.16186   0.28608   0.34205   0.38821   0.44526
     Eigenvalues ---    0.46154   1.576981000.000001000.000001000.00000
 En-DIIS/RFO-DIIS IScMMF=        0 using points:    11   10    9    8    7
 RFO step:  Lambda= 0.00000000D+00.
 DIIS coeffs:      1.12827     -0.00071     -0.26132      0.17698     -0.04323
 Iteration  1 RMS(Cart)=  0.00044727 RMS(Int)=  0.00000215
 Iteration  2 RMS(Cart)=  0.00000017 RMS(Int)=  0.00000214
 Variable       Old X    -DE/DX   Delta X   Delta X   Delta X     New X
                                  (DIIS)     (GDIIS)  (Total)
    R1        2.48843  -0.00001   0.00008  -0.00001   0.00006   2.48850
    R2        2.39619  -0.00007  -0.00011  -0.00002  -0.00012   2.39607
    R3        2.06103   0.00000   0.00001   0.00001   0.00003   2.06106
    R4        1.91152   0.00000  -0.00001   0.00001   0.00000   1.91152
    R5        1.91076   0.00000   0.00001  -0.00002  -0.00001   1.91075
    A1        2.10302   0.00002   0.00001   0.00001   0.00002   2.10304
    A2        2.11632   0.00000   0.00002  -0.00005  -0.00003   2.11628
    A3        2.06385  -0.00001  -0.00003   0.00005   0.00001   2.06386
    A4        2.08175  -0.00001  -0.00011   0.00001  -0.00009   2.08166
    A5        2.12497  -0.00001  -0.00002  -0.00003  -0.00004   2.12492
    A6        2.07646   0.00001   0.00011   0.00002   0.00014   2.07660
    D1        0.00060   0.00000  -0.00068   0.00002  -0.00066  -0.00007
    D2       -3.13978  -0.00001  -0.00151  -0.00010  -0.00161  -3.14139
    D3       -3.14153   0.00001  -0.00001  -0.00008  -0.00009   3.14157
    D4        0.00129   0.00000  -0.00084  -0.00020  -0.00104   0.00025
         Item               Value     Threshold  Converged?
 Maximum Force            0.000070     0.000450     YES
 RMS     Force            0.000020     0.000300     YES
 Maximum Displacement     0.001081     0.001800     YES
 RMS     Displacement     0.000447     0.001200     YES
 Predicted change in Energy=-1.145925D-08
 Optimization completed.
    -- Stationary point found.
                           ----------------------------
                           !   Optimized Parameters   !
                           ! (Angstroms and Degrees)  !
 --------------------------                            --------------------------
 ! Name  Definition              Value          Derivative Info.                !
 --------------------------------------------------------------------------------
 ! R1    R(1,2)                  1.3168         -DE/DX =    0.0                 !
 ! R2    R(1,3)                  1.268          -DE/DX =   -0.0001              !
 ! R3    R(1,6)                  1.0906         -DE/DX =    0.0                 !
 ! R4    R(2,4)                  1.0115         -DE/DX =    0.0                 !
 ! R5    R(2,5)                  1.0111         -DE/DX =    0.0                 !
 ! A1    A(2,1,3)              120.4944         -DE/DX =    0.0                 !
 ! A2    A(2,1,6)              121.2559         -DE/DX =    0.0                 !
 ! A3    A(3,1,6)              118.2497         -DE/DX =    0.0                 !
 ! A4    A(1,2,4)              119.2757         -DE/DX =    0.0                 !
 ! A5    A(1,2,5)              121.7516         -DE/DX =    0.0                 !
 ! A6    A(4,2,5)              118.9727         -DE/DX =    0.0                 !
 ! D1    D(3,1,2,4)              0.0341         -DE/DX =    0.0                 !
 ! D2    D(3,1,2,5)           -179.896          -DE/DX =    0.0                 !
 ! D3    D(6,1,2,4)            180.0037         -DE/DX =    0.0                 !
 ! D4    D(6,1,2,5)              0.0736         -DE/DX =    0.0                 !
 --------------------------------------------------------------------------------
 GradGradGradGradGradGradGradGradGradGradGradGradGradGradGradGradGradGrad

                          Input orientation:                          
 ---------------------------------------------------------------------
 Center     Atomic      Atomic             Coordinates (Angstroms)
 Number     Number       Type             X           Y           Z
 ---------------------------------------------------------------------
      1          6           0       -0.108799    0.423423   -0.001140
      2          7           0        1.076063   -0.151139    0.000576
      3          8           0       -1.164512   -0.278936    0.002311
      4          1           0        1.136157   -1.160881    0.004160
      5          1           0        1.929990    0.390332   -0.000545
      6          1           0       -0.211176    1.509251   -0.005044
 ---------------------------------------------------------------------
                    Distance matrix (angstroms):
                    1          2          3          4          5
     1  C    0.000000
     2  N    1.316823   0.000000
     3  O    1.268011   2.244217   0.000000
     4  H    2.014936   1.011535   2.463922   0.000000
     5  H    2.039058   1.011130   3.166050   1.742543   0.000000
     6  H    1.090650   2.100931   2.026454   2.990819   2.415904
                    6
     6  H    0.000000
 Symmetry turned off by external request.
 Stoichiometry    CH3NO
 Framework group  C1[X(CH3NO)]
 Deg. of freedom    12
 Full point group                 C1      NOp   1
 Rotational constants (GHZ):     67.8138586     11.7209769      9.9936680

 **********************************************************************

            Population analysis using the SCF density.

 **********************************************************************

 Alpha  occ. eigenvalues --  -19.16883 -14.43672 -10.35997  -1.10621  -1.00381
 Alpha  occ. eigenvalues --   -0.71937  -0.64741  -0.57200  -0.48482  -0.47551
 Alpha  occ. eigenvalues --   -0.34442  -0.32666
 Alpha virt. eigenvalues --   -0.00218   0.01915   0.03438   0.04182   0.06243
 Alpha virt. eigenvalues --    0.07578   0.08160   0.09339   0.10227   0.11555
 Alpha virt. eigenvalues --    0.12468   0.13804   0.17034   0.17673   0.18642
 Alpha virt. eigenvalues --    0.21439   0.22174   0.22535   0.23223   0.25634
 Alpha virt. eigenvalues --    0.27584   0.27756   0.30744   0.31864   0.32224
 Alpha virt. eigenvalues --    0.32972   0.34127   0.34943   0.36686   0.39791
 Alpha virt. eigenvalues --    0.40713   0.40964   0.44293   0.44584   0.47200
 Alpha virt. eigenvalues --    0.52389   0.53144   0.54379   0.55386   0.56337
 Alpha virt. eigenvalues --    0.57393   0.62255   0.67766   0.72070   0.73446
 Alpha virt. eigenvalues --    0.74878   0.75335   0.76508   0.76674   0.79095
 Alpha virt. eigenvalues --    0.81099   0.81622   0.84652   0.86772   0.86865
 Alpha virt. eigenvalues --    0.88000   0.90754   0.90782   0.93091   0.95137
 Alpha virt. eigenvalues --    0.95535   0.97853   0.98116   0.99779   1.02130
 Alpha virt. eigenvalues --    1.03209   1.04765   1.07017   1.10558   1.11576
 Alpha virt. eigenvalues --    1.12519   1.17760   1.21229   1.24113   1.25300
 Alpha virt. eigenvalues --    1.27478   1.28706   1.31809   1.32527   1.35795
 Alpha virt. eigenvalues --    1.40410   1.41675   1.46751   1.48345   1.54212
 Alpha virt. eigenvalues --    1.58232   1.59724   1.62284   1.71035   1.72800
 Alpha virt. eigenvalues --    1.81123   1.84674   1.85486   1.86006   1.86564
 Alpha virt. eigenvalues --    1.93943   1.97793   2.02489   2.08645   2.12652
 Alpha virt. eigenvalues --    2.16321   2.18919   2.21301   2.23562   2.24744
 Alpha virt. eigenvalues --    2.26922   2.31827   2.32262   2.34479   2.37809
 Alpha virt. eigenvalues --    2.41684   2.44066   2.47081   2.54956   2.55248
 Alpha virt. eigenvalues --    2.61558   2.66329   2.81283   2.87037   2.93437
 Alpha virt. eigenvalues --    2.95419   3.04150   3.13165   3.19672   3.29504
 Alpha virt. eigenvalues --    3.31213   3.37232   3.41481   3.47843   3.52682
 Alpha virt. eigenvalues --    3.63708   3.67457   3.73313   3.74776   3.80575
 Alpha virt. eigenvalues --    3.81820   3.85375   3.90202   3.96242   3.99692
 Alpha virt. eigenvalues --    4.04970   4.07071   4.11659   4.14746   4.16277
 Alpha virt. eigenvalues --    4.22706   4.28730   4.37762   4.39587   4.44149
 Alpha virt. eigenvalues --    4.45622   4.48570   4.56850   4.59531   4.66563
 Alpha virt. eigenvalues --    4.72428   4.72556   4.81630   4.91005   4.97234
 Alpha virt. eigenvalues --    4.99258   5.06613   5.15503   5.19415   5.24182
 Alpha virt. eigenvalues --    5.30073   5.30687   5.45771   5.47706   5.70286
 Alpha virt. eigenvalues --    5.71992   5.82274   5.85247   5.90133   5.99458
 Alpha virt. eigenvalues --    6.11475   6.26886   6.32089   6.40780   6.54747
 Alpha virt. eigenvalues --    6.62518   6.66117   6.69846   6.83136   6.88458
 Alpha virt. eigenvalues --    6.96550   7.13442   7.13674   7.20555   7.31316
 Alpha virt. eigenvalues --    7.40735   7.56016  13.68571  16.15177  17.04254
          Condensed to atoms (all electrons):
              1          2          3          4          5          6
     1  C    5.021486   0.406948   0.413830  -0.039877  -0.050684   0.261327
     2  N    0.406948   6.057805  -0.122331   0.407989   0.429147  -0.044785
     3  O    0.413830  -0.122331   8.299726   0.007692   0.002416  -0.037546
     4  H   -0.039877   0.407989   0.007692   0.570736  -0.078620   0.003390
     5  H   -0.050684   0.429147   0.002416  -0.078620   0.608806   0.005291
     6  H    0.261327  -0.044785  -0.037546   0.003390   0.005291   0.313067
 Mulliken atomic charges:
              1
     1  C   -0.013029
     2  N   -0.134772
     3  O   -0.563787
     4  H    0.128690
     5  H    0.083643
     6  H    0.499256
 Sum of Mulliken atomic charges =   0.00000
 Mulliken charges with hydrogens summed into heavy atoms:
              1
     1  C    0.486226
     2  N    0.077561
     3  O   -0.563787
 Sum of Mulliken charges with hydrogens summed into heavy atoms =   0.00000
 Electronic spatial extent (au):  <R**2>=            145.4129
 Charge=              0.0000 electrons
 Dipole moment (field-independent basis, Debye):
    X=              4.3258    Y=              1.1685    Z=             -0.0051  Tot=              4.4809
 Quadrupole moment (field-independent basis, Debye-Ang):
   XX=            -18.3601   YY=            -15.2852   ZZ=            -19.1820
   XY=             -1.6096   XZ=              0.0129   YZ=             -0.0114
 Traceless Quadrupole moment (field-independent basis, Debye-Ang):
   XX=             -0.7510   YY=              2.3239   ZZ=             -1.5729
   XY=             -1.6096   XZ=              0.0129   YZ=             -0.0114
 Octapole moment (field-independent basis, Debye-Ang**2):
  XXX=             13.2736  YYY=             -1.0302  ZZZ=             -0.0296  XYY=              2.6149
  XXY=              0.9965  XXZ=             -0.0119  XZZ=             -1.2392  YZZ=             -0.1272
  YYZ=             -0.0074  XYZ=             -0.0131
 Hexadecapole moment (field-independent basis, Debye-Ang**3):
 XXXX=           -111.0009 YYYY=            -35.5767 ZZZZ=            -19.2615 XXXY=              1.6899
 XXXZ=              0.0376 YYYX=             -5.4985 YYYZ=              0.0210 ZZZX=              0.0284
 ZZZY=              0.0461 XXYY=            -23.9460 XXZZ=            -25.6773 YYZZ=            -10.4199
 XXYZ=             -0.0019 YYXZ=              0.0277 ZZXY=             -0.1796
 N-N= 7.109110661126D+01 E-N=-5.405177153903D+02  KE= 1.688383579212D+02
 1\1\GINC-CLODOMIRA\FOpt\RTD-CAM-B3LYP-FC\Aug-CC-pVTZ\C1H3N1O1\DIEGOA\2
 5-Oct-2019\0\\# cam-b3lyp/aug-cc-pvtz nosymm td(root=7,nstates=20) opt
  integral=(grid=ultrafine)\\Title\\0,1\C,-0.108799014,0.4234234676,-0.
 0011402444\N,1.0760625132,-0.1511391858,0.0005762753\O,-1.1645124549,-
 0.2789361356,0.0023112862\H,1.1361571643,-1.1608813789,0.0041602241\H,
 1.9299900513,0.3903316764,-0.0005451665\H,-0.2111762599,1.5092505562,-
 0.0050443746\\Version=EM64L-G09RevA.01\HF=-169.8907478\RMSD=3.669e-09\
 RMSF=2.580e-05\Dipole=-0.4349661,0.0147637,-0.0005563\PG=C01 [X(C1H3N1
 O1)]\\@


 Some scientists claim that hydrogen, because it is so
 plentiful, is the basic building block of the universe. 
 I dispute that. I say that stupidity is far more
 abundant than hydrogen, and THAT is the basic building 
 block of the universe.
                   --Frank Zappa
 Job cpu time:  0 days 15 hours 16 minutes 48.4 seconds.
 File lengths (MBytes):  RWF=    132 Int=      0 D2E=      0 Chk=     30 Scr=      1
 Normal termination of Gaussian 09 at Fri Oct 25 14:47:26 2019.
