 Entering Gaussian System, Link 0=g09
 Input=freq.com
 Output=freq.log
 Initial command:
 /home/diegoa/progs/g09/l1.exe /home/diegoa/g09scratch/Gau-2893.inp -scrdir=/home/diegoa/g09scratch/
 Default is to use a total of   4 processors:
                                4 via shared-memory
                                1 via Linda
 Entering Link 1 = /home/diegoa/progs/g09/l1.exe PID=      2898.
  
 Copyright (c) 1988,1990,1992,1993,1995,1998,2003,2009, Gaussian, Inc.
                  All Rights Reserved.
  
 This is part of the Gaussian(R) 09 program.  It is based on
 the Gaussian(R) 03 system (copyright 2003, Gaussian, Inc.),
 the Gaussian(R) 98 system (copyright 1998, Gaussian, Inc.),
 the Gaussian(R) 94 system (copyright 1995, Gaussian, Inc.),
 the Gaussian 92(TM) system (copyright 1992, Gaussian, Inc.),
 the Gaussian 90(TM) system (copyright 1990, Gaussian, Inc.),
 the Gaussian 88(TM) system (copyright 1988, Gaussian, Inc.),
 the Gaussian 86(TM) system (copyright 1986, Carnegie Mellon
 University), and the Gaussian 82(TM) system (copyright 1983,
 Carnegie Mellon University). Gaussian is a federally registered
 trademark of Gaussian, Inc.
  
 This software contains proprietary and confidential information,
 including trade secrets, belonging to Gaussian, Inc.
  
 This software is provided under written license and may be
 used, copied, transmitted, or stored only in accord with that
 written license.
  
 The following legend is applicable only to US Government
 contracts under FAR:
  
                    RESTRICTED RIGHTS LEGEND
  
 Use, reproduction and disclosure by the US Government is
 subject to restrictions as set forth in subparagraphs (a)
 and (c) of the Commercial Computer Software - Restricted
 Rights clause in FAR 52.227-19.
  
 Gaussian, Inc.
 340 Quinnipiac St., Bldg. 40, Wallingford CT 06492
  
  
 ---------------------------------------------------------------
 Warning -- This program may not be used in any manner that
 competes with the business of Gaussian, Inc. or will provide
 assistance to any competitor of Gaussian, Inc.  The licensee
 of this program is prohibited from giving any competitor of
 Gaussian, Inc. access to this program.  By using this program,
 the user acknowledges that Gaussian, Inc. is engaged in the
 business of creating and licensing software in the field of
 computational chemistry and represents and warrants to the
 licensee that it is not a competitor of Gaussian, Inc. and that
 it will not use this program in any manner prohibited above.
 ---------------------------------------------------------------
  

 Cite this work as:
 Gaussian 09, Revision A.01,
 M. J. Frisch, G. W. Trucks, H. B. Schlegel, G. E. Scuseria, 
 M. A. Robb, J. R. Cheeseman, G. Scalmani, V. Barone, B. Mennucci, 
 G. A. Petersson, H. Nakatsuji, M. Caricato, X. Li, H. P. Hratchian, 
 A. F. Izmaylov, J. Bloino, G. Zheng, J. L. Sonnenberg, M. Hada, 
 M. Ehara, K. Toyota, R. Fukuda, J. Hasegawa, M. Ishida, T. Nakajima, 
 Y. Honda, O. Kitao, H. Nakai, T. Vreven, J. A. Montgomery, Jr., 
 J. E. Peralta, F. Ogliaro, M. Bearpark, J. J. Heyd, E. Brothers, 
 K. N. Kudin, V. N. Staroverov, R. Kobayashi, J. Normand, 
 K. Raghavachari, A. Rendell, J. C. Burant, S. S. Iyengar, J. Tomasi, 
 M. Cossi, N. Rega, J. M. Millam, M. Klene, J. E. Knox, J. B. Cross, 
 V. Bakken, C. Adamo, J. Jaramillo, R. Gomperts, R. E. Stratmann, 
 O. Yazyev, A. J. Austin, R. Cammi, C. Pomelli, J. W. Ochterski, 
 R. L. Martin, K. Morokuma, V. G. Zakrzewski, G. A. Voth, 
 P. Salvador, J. J. Dannenberg, S. Dapprich, A. D. Daniels, 
 O. Farkas, J. B. Foresman, J. V. Ortiz, J. Cioslowski, 
 and D. J. Fox, Gaussian, Inc., Wallingford CT, 2009.
 
 ******************************************
 Gaussian 09:  EM64L-G09RevA.01  8-May-2009
                 7-Nov-2019 
 ******************************************
 %chk=freq.chk
 %NProcShared=4
 Will use up to    4 processors via shared memory.
 Default route:  MP2=Direct MaxDisk=1000GB DenFit
 -----------------------------------------------------------------
 # pbepbe/6-31G** opt(tight) Freq=(savenormalmodes,raman) SCRF=PCM
 -----------------------------------------------------------------
 1/7=10,14=-1,18=20,19=15,26=3,38=1/1,3;
 2/9=110,12=2,17=6,18=5,40=1/2;
 3/5=1,6=6,7=101,11=2,16=1,25=1,30=1,70=2201,71=1,72=1,74=1009,82=47/1,2,3;
 4//1;
 5/5=2,38=5/2;
 6/7=2,8=2,9=2,10=2,28=1/1;
 7/92=1/1,2,3,16;
 1/7=10,14=-1,18=20,19=15/3(2);
 2/9=110/2;
 99//99;
 2/9=110/2;
 3/5=1,6=6,7=101,11=2,16=1,25=1,30=1,70=2205,71=1,74=1009,82=47/1,2,3;
 4/5=5,16=3/1;
 5/5=2,38=5/2;
 7/92=1/1,2,3,16;
 1/7=10,14=-1,18=20,19=15/3(-5);
 2/9=110/2;
 6/7=2,8=2,9=2,10=2,19=2,28=1/1;
 99/9=1/99;
 -----
 Title
 -----
 Symbolic Z-matrix:
 Charge =  0 Multiplicity = 1
 6                    -1.8447    0.04673  -0.0001 
 7                    -1.07584   1.172     0.00034 
 8                    -1.39547  -1.17832  -0.0001 
 1                     0.11474   1.17987   0.00027 
 1                    -1.62294   2.06317  -0.00016 
 1                    -2.95326   0.20252  -0.00014 
 6                     1.84455  -0.04666   0.00007 
 7                     1.07581  -1.17217   0. 
 8                     1.39555   1.1784   -0.00027 
 1                    -0.11537  -1.18006  -0.00008 
 1                     2.95319  -0.20262   0.00031 
 1                     1.62413  -2.06273   0.00054 
 

 GradGradGradGradGradGradGradGradGradGradGradGradGradGradGradGradGradGrad
 Berny optimization.
 Initialization pass.
                           ----------------------------
                           !    Initial Parameters    !
                           ! (Angstroms and Degrees)  !
 --------------------------                            --------------------------
 ! Name  Definition              Value          Derivative Info.                !
 --------------------------------------------------------------------------------
 ! R1    R(1,2)                  1.3629         estimate D2E/DX2                !
 ! R2    R(1,3)                  1.3048         estimate D2E/DX2                !
 ! R3    R(1,6)                  1.1195         estimate D2E/DX2                !
 ! R4    R(2,4)                  1.1906         estimate D2E/DX2                !
 ! R5    R(2,5)                  1.0457         estimate D2E/DX2                !
 ! R6    R(3,10)                 1.2801         estimate D2E/DX2                !
 ! R7    R(4,9)                  1.2808         estimate D2E/DX2                !
 ! R8    R(7,8)                  1.363          estimate D2E/DX2                !
 ! R9    R(7,9)                  1.3047         estimate D2E/DX2                !
 ! R10   R(7,11)                 1.1195         estimate D2E/DX2                !
 ! R11   R(8,10)                 1.1912         estimate D2E/DX2                !
 ! R12   R(8,12)                 1.0458         estimate D2E/DX2                !
 ! A1    A(2,1,3)              125.5182         estimate D2E/DX2                !
 ! A2    A(2,1,6)              116.3438         estimate D2E/DX2                !
 ! A3    A(3,1,6)              118.1379         estimate D2E/DX2                !
 ! A4    A(1,2,4)              124.7223         estimate D2E/DX2                !
 ! A5    A(1,2,5)              114.1105         estimate D2E/DX2                !
 ! A6    A(4,2,5)              121.1672         estimate D2E/DX2                !
 ! A7    A(1,3,10)             110.2161         estimate D2E/DX2                !
 ! A8    A(8,7,9)              125.5377         estimate D2E/DX2                !
 ! A9    A(8,7,11)             116.3263         estimate D2E/DX2                !
 ! A10   A(9,7,11)             118.136          estimate D2E/DX2                !
 ! A11   A(7,8,10)             124.7133         estimate D2E/DX2                !
 ! A12   A(7,8,12)             114.0459         estimate D2E/DX2                !
 ! A13   A(10,8,12)            121.2408         estimate D2E/DX2                !
 ! A14   A(4,9,7)              110.1944         estimate D2E/DX2                !
 ! A15   L(2,4,9,7,-1)         179.5555         estimate D2E/DX2                !
 ! A16   L(3,10,8,1,-1)        179.5426         estimate D2E/DX2                !
 ! A17   L(2,4,9,7,-2)         179.9644         estimate D2E/DX2                !
 ! A18   L(3,10,8,1,-2)        179.9957         estimate D2E/DX2                !
 ! D1    D(3,1,2,4)              0.0301         estimate D2E/DX2                !
 ! D2    D(3,1,2,5)            179.9754         estimate D2E/DX2                !
 ! D3    D(6,1,2,4)           -179.9902         estimate D2E/DX2                !
 ! D4    D(6,1,2,5)             -0.0449         estimate D2E/DX2                !
 ! D5    D(2,1,3,10)            -0.0215         estimate D2E/DX2                !
 ! D6    D(6,1,3,10)           179.9991         estimate D2E/DX2                !
 ! D7    D(1,2,9,7)             -0.0531         estimate D2E/DX2                !
 ! D8    D(5,2,9,7)           -179.9809         estimate D2E/DX2                !
 ! D9    D(1,3,8,7)              0.0013         estimate D2E/DX2                !
 ! D10   D(1,3,8,12)           179.9663         estimate D2E/DX2                !
 ! D11   D(9,7,8,10)            -0.0184         estimate D2E/DX2                !
 ! D12   D(9,7,8,12)          -179.9873         estimate D2E/DX2                !
 ! D13   D(11,7,8,10)          179.9902         estimate D2E/DX2                !
 ! D14   D(11,7,8,12)            0.0213         estimate D2E/DX2                !
 ! D15   D(8,7,9,4)              0.0456         estimate D2E/DX2                !
 ! D16   D(11,7,9,4)          -179.9632         estimate D2E/DX2                !
 --------------------------------------------------------------------------------
 Trust Radius=3.00D-01 FncErr=1.00D-07 GrdErr=1.00D-06
 Number of steps in this run=  56 maximum allowed number of steps= 100.
 GradGradGradGradGradGradGradGradGradGradGradGradGradGradGradGradGradGrad

                          Input orientation:                          
 ---------------------------------------------------------------------
 Center     Atomic      Atomic             Coordinates (Angstroms)
 Number     Number       Type             X           Y           Z
 ---------------------------------------------------------------------
      1          6           0       -1.844704    0.046731   -0.000101
      2          7           0       -1.075845    1.171998    0.000337
      3          8           0       -1.395472   -1.178319   -0.000100
      4          1           0        0.114743    1.179868    0.000267
      5          1           0       -1.622941    2.063172   -0.000156
      6          1           0       -2.953263    0.202523   -0.000137
      7          6           0        1.844553   -0.046662    0.000074
      8          7           0        1.075813   -1.172168    0.000001
      9          8           0        1.395552    1.178397   -0.000269
     10          1           0       -0.115368   -1.180059   -0.000075
     11          1           0        2.953185   -0.202617    0.000312
     12          1           0        1.624129   -2.062733    0.000535
 ---------------------------------------------------------------------
                    Distance matrix (angstroms):
                    1          2          3          4          5
     1  C    0.000000
     2  N    1.362854   0.000000
     3  O    1.304821   2.371951   0.000000
     4  H    2.263500   1.190614   2.800321   0.000000
     5  H    2.028599   1.045708   3.249462   1.949300   0.000000
     6  H    1.119453   2.112955   2.081691   3.219917   2.287307
     7  C    3.690439   3.164468   3.431969   2.120523   4.058930
     8  N    3.164670   3.181941   2.471293   2.540813   4.213158
     9  O    3.432190   2.471405   3.652934   1.280810   3.145493
    10  H    2.120287   2.540608   1.280105   2.371119   3.576496
    11  H    4.804364   4.257070   4.456772   3.157217   5.106342
    12  H    4.059882   4.213472   3.146455   3.576689   5.250386
                    6          7          8          9         10
     6  H    0.000000
     7  C    4.804283   0.000000
     8  N    4.257139   1.362984   0.000000
     9  O    4.456963   1.304750   2.372212   0.000000
    10  H    3.156767   2.264040   1.191207   2.800927   0.000000
    11  H    5.920327   1.119548   2.112949   2.081687   3.220467
    12  H    5.107240   2.028085   1.045828   3.249180   1.950632
                   11         12
    11  H    0.000000
    12  H    2.286137   0.000000
 Stoichiometry    C2H6N2O2
 Framework group  C1[X(C2H6N2O2)]
 Deg. of freedom    30
 Full point group                 C1      NOp   1
 Largest Abelian subgroup         C1      NOp   1
 Largest concise Abelian subgroup C1      NOp   1
                         Standard orientation:                         
 ---------------------------------------------------------------------
 Center     Atomic      Atomic             Coordinates (Angstroms)
 Number     Number       Type             X           Y           Z
 ---------------------------------------------------------------------
      1          6           0       -1.844704    0.046731   -0.000101
      2          7           0       -1.075845    1.171998    0.000337
      3          8           0       -1.395472   -1.178319   -0.000100
      4          1           0        0.114743    1.179868    0.000267
      5          1           0       -1.622941    2.063172   -0.000156
      6          1           0       -2.953263    0.202523   -0.000137
      7          6           0        1.844553   -0.046662    0.000074
      8          7           0        1.075813   -1.172168    0.000001
      9          8           0        1.395552    1.178397   -0.000269
     10          1           0       -0.115368   -1.180059   -0.000075
     11          1           0        2.953185   -0.202617    0.000312
     12          1           0        1.624129   -2.062733    0.000535
 ---------------------------------------------------------------------
 Rotational constants (GHZ):      5.3836209      2.5289768      1.7206805
 Standard basis: 6-31G(d,p) (6D, 7F)
 There are   120 symmetry adapted basis functions of A   symmetry.
 Integral buffers will be    131072 words long.
 Raffenetti 2 integral format.
 Two-electron integral symmetry is turned on.
   120 basis functions,   210 primitive gaussians,   120 cartesian basis functions
    24 alpha electrons       24 beta electrons
       nuclear repulsion energy       236.1474296378 Hartrees.
 NAtoms=   12 NActive=   12 NUniq=   12 SFac= 7.50D-01 NAtFMM=   80 NAOKFM=F Big=F
 Standard density basis: Auto (5D, 7F)
   552 Density fitting functions
 There are   552 symmetry adapted density basis functions of A   symmetry.
 ------------------------------------------------------------------------------
 Polarizable Continuum Model (PCM)
 =================================
 Model                : PCM.
 Atomic radii         : UFF (Universal Force Field).
 Polarization charges : Total charges.
 Charge compensation  : None.
 Solution method      : Matrix inversion.
 Cavity type          : Scaled VdW (van der Waals Surface) (Alpha=1.100).
 Cavity algorithm     : GePol (No added spheres)
                        Default sphere list used, NSphG=   12.
                        Lebedev-Laikov grids with approx.  5.0 points / Ang**2.
                        Smoothing algorithm: Karplus/York (Gamma=1.0000).
                        Polarization charges: spherical gaussians, with
                                              point-specific exponents (IZeta= 3).
                        Self-potential: point-specific (ISelfS= 7).
                        Self-field    : sphere-specific E.n sum rule (ISelfD= 2).
 1st derivatives      : Analytical E(r).r(x)/FMM algorithm (CHGder, D1EAlg=3).
                        Cavity 1st derivative terms included.
 Solvent              : Water, Eps=  78.355300 Eps(inf)=   1.777849
 ------------------------------------------------------------------------------
 Spheres list:
 ISph  on   Nord    Re0     Alpha      Xe            Ye            Ze
    1   C      1    1.926   1.100     -1.844704      0.046731     -0.000101
    2   N      2    1.830   1.100     -1.075845      1.171998      0.000337
    3   O      3    1.750   1.100     -1.395472     -1.178319     -0.000100
    4   H      4    1.443   1.100      0.114743      1.179868      0.000267
    5   H      5    1.443   1.100     -1.622941      2.063172     -0.000156
    6   H      6    1.443   1.100     -2.953263      0.202523     -0.000137
    7   C      7    1.926   1.100      1.844553     -0.046662      0.000074
    8   N      8    1.830   1.100      1.075813     -1.172168      0.000001
    9   O      9    1.750   1.100      1.395552      1.178397     -0.000269
   10   H     10    1.443   1.100     -0.115368     -1.180059     -0.000075
   11   H     11    1.443   1.100      2.953185     -0.202617      0.000312
   12   H     12    1.443   1.100      1.624129     -2.062733      0.000535
 ------------------------------------------------------------------------------
 One-electron integrals computed using PRISM.
 NBasis=   120 RedAO= T  NBF=   120
 NBsUse=   120 1.00D-06 NBFU=   120
 NBasis=      120 NBas6D=      120 NTT=        7260   NTT6D=     7260
 NDBShl=       96 NDBF=        552 NDBF6D=      636  NNucDB=        0
 IDenFi=        2 ISolve=        0 FullAP=F BlkAPC=T NucTyp=        0
 TolInv= 1.00D-05 TolIt=  1.00D-10 IR12=0.
 Petite list used in FoFDir.
 MinBra= 0 MaxBra= 3 Meth= 1.
 IRaf=       0 NMat=   1 IRICut=       1 DoRegI=T DoRafI=F ISym2E= 1 JSym2E=1.
  NDBF=   552  NBFD=   552
 NRank=   552 NBFDU=   552
 S*AI*S=  6.44124910835    
 Harris functional with IExCor= 1009 diagonalized for initial guess.
 ExpMin= 1.61D-01 ExpMax= 5.48D+03 ExpMxC= 8.25D+02 IAcc=1 IRadAn=         1 AccDes= 0.00D+00
 HarFok:  IExCor= 1009 AccDes= 0.00D+00 IRadAn=         1 IDoV= 1
 ScaDFX=  1.000000  1.000000  1.000000  1.000000
 FoFCou: FMM=F IPFlag=           0 FMFlag=      100000 FMFlg1=           0
         NFxFlg=           0 DoJE=T BraDBF=F KetDBF=T FulRan=T
         Omega=  0.000000  0.000000  1.000000  0.000000  0.000000 ICntrl=     500 IOpCl=  0
         NMat0=    1 NMatS0=    1 NMatT0=    0 NMatD0=    1 NMtDS0=    0 NMtDT0=    0
         I1Cent=           4 NGrid=           0.
 Petite list used in FoFCou.
 Initial guess orbital symmetries:
       Occupied  (A) (A) (A) (A) (A) (A) (A) (A) (A) (A) (A) (A)
                 (A) (A) (A) (A) (A) (A) (A) (A) (A) (A) (A) (A)
       Virtual   (A) (A) (A) (A) (A) (A) (A) (A) (A) (A) (A) (A)
                 (A) (A) (A) (A) (A) (A) (A) (A) (A) (A) (A) (A)
                 (A) (A) (A) (A) (A) (A) (A) (A) (A) (A) (A) (A)
                 (A) (A) (A) (A) (A) (A) (A) (A) (A) (A) (A) (A)
                 (A) (A) (A) (A) (A) (A) (A) (A) (A) (A) (A) (A)
                 (A) (A) (A) (A) (A) (A) (A) (A) (A) (A) (A) (A)
                 (A) (A) (A) (A) (A) (A) (A) (A) (A) (A) (A) (A)
                 (A) (A) (A) (A) (A) (A) (A) (A) (A) (A) (A) (A)
 The electronic state of the initial guess is 1-A.
 Requested convergence on RMS density matrix=1.00D-08 within 128 cycles.
 Requested convergence on MAX density matrix=1.00D-06.
 Requested convergence on             energy=1.00D-06.
 No special actions if energy rises.
 FoFCou: FMM=F IPFlag=           0 FMFlag=      100000 FMFlg1=           0
         NFxFlg=           0 DoJE=T BraDBF=T KetDBF=F FulRan=T
         Omega=  0.000000  0.000000  1.000000  0.000000  0.000000 ICntrl=     500 IOpCl=  0
         NMat0=    1 NMatS0=    1 NMatT0=    0 NMatD0=    1 NMtDS0=    0 NMtDT0=    0
         I1Cent=           5 NGrid=           0.
 Symmetry not used in FoFCou.
 Error on total polarization charges =  0.00473
 SCF Done:  E(RPBE-PBE) =  -339.424611588     A.U. after   12 cycles
             Convg  =    0.2542D-08             -V/T =  2.0104

 **********************************************************************

            Population analysis using the SCF density.

 **********************************************************************

 Orbital symmetries:
       Occupied  (A) (A) (A) (A) (A) (A) (A) (A) (A) (A) (A) (A)
                 (A) (A) (A) (A) (A) (A) (A) (A) (A) (A) (A) (A)
       Virtual   (A) (A) (A) (A) (A) (A) (A) (A) (A) (A) (A) (A)
                 (A) (A) (A) (A) (A) (A) (A) (A) (A) (A) (A) (A)
                 (A) (A) (A) (A) (A) (A) (A) (A) (A) (A) (A) (A)
                 (A) (A) (A) (A) (A) (A) (A) (A) (A) (A) (A) (A)
                 (A) (A) (A) (A) (A) (A) (A) (A) (A) (A) (A) (A)
                 (A) (A) (A) (A) (A) (A) (A) (A) (A) (A) (A) (A)
                 (A) (A) (A) (A) (A) (A) (A) (A) (A) (A) (A) (A)
                 (A) (A) (A) (A) (A) (A) (A) (A) (A) (A) (A) (A)
 The electronic state is 1-A.
 Alpha  occ. eigenvalues --  -18.76930 -18.76919 -14.01110 -14.01099 -10.00466
 Alpha  occ. eigenvalues --  -10.00455  -0.94426  -0.93403  -0.80467  -0.79120
 Alpha  occ. eigenvalues --   -0.57346  -0.51957  -0.48263  -0.47752  -0.45504
 Alpha  occ. eigenvalues --   -0.38924  -0.36042  -0.35363  -0.34175  -0.34141
 Alpha  occ. eigenvalues --   -0.25013  -0.23832  -0.22066  -0.21401
 Alpha virt. eigenvalues --   -0.03644  -0.02208   0.06546   0.07583   0.11408
 Alpha virt. eigenvalues --    0.13014   0.16519   0.22102   0.26546   0.27050
 Alpha virt. eigenvalues --    0.29705   0.37914   0.46335   0.48860   0.49869
 Alpha virt. eigenvalues --    0.51245   0.54405   0.57393   0.59781   0.60503
 Alpha virt. eigenvalues --    0.62688   0.67352   0.67591   0.70986   0.76357
 Alpha virt. eigenvalues --    0.76822   0.78880   0.80496   0.84781   0.89030
 Alpha virt. eigenvalues --    0.89655   0.94251   0.98237   1.01649   1.15892
 Alpha virt. eigenvalues --    1.16409   1.25136   1.25219   1.26941   1.27710
 Alpha virt. eigenvalues --    1.29807   1.29979   1.33581   1.33994   1.41790
 Alpha virt. eigenvalues --    1.44408   1.51296   1.56562   1.62677   1.64372
 Alpha virt. eigenvalues --    1.65853   1.68077   1.69530   1.70023   1.86029
 Alpha virt. eigenvalues --    1.89076   1.90336   1.94355   2.01791   2.03710
 Alpha virt. eigenvalues --    2.04894   2.06639   2.07347   2.25351   2.26945
 Alpha virt. eigenvalues --    2.32897   2.37997   2.39316   2.39827   2.41621
 Alpha virt. eigenvalues --    2.44615   2.44858   2.45929   2.51778   2.54321
 Alpha virt. eigenvalues --    2.60860   2.63030   2.64617   2.72709   2.72837
 Alpha virt. eigenvalues --    2.81947   2.85004   2.90503   3.03039   3.12596
 Alpha virt. eigenvalues --    3.16837   3.35811   3.40820   3.52889   3.59722
 Alpha virt. eigenvalues --    3.93675   4.02471   4.06017   4.08216   4.28622
 Alpha virt. eigenvalues --    4.37280
          Condensed to atoms (all electrons):
              1          2          3          4          5          6
     1  C    4.551400   0.369951   0.415716  -0.012489  -0.014981   0.382358
     2  N    0.369951   6.994075  -0.066217   0.181264   0.306937  -0.074156
     3  O    0.415716  -0.066217   8.171323  -0.000415   0.003173  -0.046656
     4  H   -0.012489   0.181264  -0.000415   0.316624  -0.008715   0.001747
     5  H   -0.014981   0.306937   0.003173  -0.008715   0.426649  -0.003776
     6  H    0.382358  -0.074156  -0.046656   0.001747  -0.003776   0.603797
     7  C   -0.001042   0.007206   0.002118  -0.021256  -0.000126  -0.000028
     8  N    0.007208   0.003307  -0.098975  -0.001711  -0.000039  -0.000493
     9  O    0.002115  -0.098962   0.000373   0.138666   0.003141  -0.000129
    10  H   -0.021264  -0.001696   0.138731   0.003657  -0.000028   0.002595
    11  H   -0.000028  -0.000493  -0.000129   0.002599   0.000007  -0.000002
    12  H   -0.000126  -0.000039   0.003139  -0.000027   0.000002   0.000007
              7          8          9         10         11         12
     1  C   -0.001042   0.007208   0.002115  -0.021264  -0.000028  -0.000126
     2  N    0.007206   0.003307  -0.098962  -0.001696  -0.000493  -0.000039
     3  O    0.002118  -0.098975   0.000373   0.138731  -0.000129   0.003139
     4  H   -0.021256  -0.001711   0.138666   0.003657   0.002599  -0.000027
     5  H   -0.000126  -0.000039   0.003141  -0.000028   0.000007   0.000002
     6  H   -0.000028  -0.000493  -0.000129   0.002595  -0.000002   0.000007
     7  C    4.551680   0.369813   0.415774  -0.012490   0.382336  -0.015000
     8  N    0.369813   6.994626  -0.066209   0.181189  -0.074215   0.306879
     9  O    0.415774  -0.066209   8.171440  -0.000414  -0.046684   0.003176
    10  H   -0.012490   0.181189  -0.000414   0.316532   0.001749  -0.008696
    11  H    0.382336  -0.074215  -0.046684   0.001749   0.604119  -0.003787
    12  H   -0.015000   0.306879   0.003176  -0.008696  -0.003787   0.426840
 Mulliken atomic charges:
              1
     1  C    0.321181
     2  N   -0.621178
     3  O   -0.522180
     4  H    0.400056
     5  H    0.287752
     6  H    0.134733
     7  C    0.321013
     8  N   -0.621382
     9  O   -0.522287
    10  H    0.400135
    11  H    0.134526
    12  H    0.287630
 Sum of Mulliken atomic charges =   0.00000
 Mulliken charges with hydrogens summed into heavy atoms:
              1
     1  C    0.455915
     2  N    0.066631
     3  O   -0.522180
     7  C    0.455539
     8  N    0.066383
     9  O   -0.522287
 Sum of Mulliken charges with hydrogens summed into heavy atoms =   0.00000
 Electronic spatial extent (au):  <R**2>=            657.6063
 Charge=              0.0000 electrons
 Dipole moment (field-independent basis, Debye):
    X=             -0.0065    Y=              0.0027    Z=              0.0008  Tot=              0.0071
 Quadrupole moment (field-independent basis, Debye-Ang):
   XX=            -27.1590   YY=            -33.4484   ZZ=            -37.1794
   XY=            -11.4872   XZ=              0.0043   YZ=             -0.0029
 Traceless Quadrupole moment (field-independent basis, Debye-Ang):
   XX=              5.4366   YY=             -0.8528   ZZ=             -4.5838
   XY=            -11.4872   XZ=              0.0043   YZ=             -0.0029
 Octapole moment (field-independent basis, Debye-Ang**2):
  XXX=             -0.0328  YYY=              0.0211  ZZZ=             -0.0014  XYY=             -0.0107
  XXY=             -0.0055  XXZ=              0.0028  XZZ=             -0.0039  YZZ=              0.0020
  YYZ=              0.0026  XYZ=              0.0008
 Hexadecapole moment (field-independent basis, Debye-Ang**3):
 XXXX=           -438.6018 YYYY=           -210.3947 ZZZZ=            -31.5318 XXXY=            -37.2575
 XXXZ=              0.0138 YYYX=            -42.7803 YYYZ=             -0.0144 ZZZX=              0.0014
 ZZZY=             -0.0030 XXYY=           -121.4499 XXZZ=            -96.6079 YYZZ=            -49.5494
 XXYZ=             -0.0095 YYXZ=              0.0118 ZZXY=              3.0634
 N-N= 2.361474296378D+02 E-N=-1.267760840270D+03  KE= 3.359202649201D+02
 D1PCM: PCM CHGder 1st derivatives, ID1Alg=3 FixD1E=F DoIter=F DoCFld=F I1PDM=0.
 Calling FoFJK, ICntrl=      2527 FMM=F ISym2X=0 I1Cent= 4 IOpClX= 0 NMat=1 NMatS=1 NMatT=0.
 ***** Axes restored to original set *****
 -------------------------------------------------------------------
 Center     Atomic                   Forces (Hartrees/Bohr)
 Number     Number              X              Y              Z
 -------------------------------------------------------------------
      1        6           0.021562100    0.006645429    0.000039027
      2        7          -0.032605604   -0.017323757   -0.000025922
      3        8          -0.027508913    0.033823403   -0.000003730
      4        1          -0.016463882    0.000352787   -0.000020112
      5        1           0.009445584   -0.017167481    0.000018248
      6        1           0.007963358   -0.003303582   -0.000015255
      7        6          -0.021496117   -0.006704580   -0.000019657
      8        7           0.032711190    0.017383026    0.000017505
      9        8           0.027448925   -0.033817293    0.000018951
     10        1           0.016520740   -0.000378285    0.000002967
     11        1          -0.007993296    0.003316579    0.000000820
     12        1          -0.009584085    0.017173755   -0.000012843
 -------------------------------------------------------------------
 Cartesian Forces:  Max     0.033823403 RMS     0.015823319

 GradGradGradGradGradGradGradGradGradGradGradGradGradGradGradGradGradGrad
 Berny optimization.
 Internal  Forces:  Max     0.041217822 RMS     0.012636171
 Search for a local minimum.
 Step number   1 out of a maximum of   56
 All quantities printed in internal units (Hartrees-Bohrs-Radians)
 Mixed Optimization -- RFO/linear search
 Second derivative matrix not updated -- first step.
     Eigenvalues ---    0.00230   0.00843   0.00926   0.01393   0.01522
     Eigenvalues ---    0.01901   0.02414   0.02458   0.02468   0.05328
     Eigenvalues ---    0.05694   0.16000   0.16000   0.16000   0.16000
     Eigenvalues ---    0.16000   0.18875   0.19419   0.19616   0.20433
     Eigenvalues ---    0.24589   0.25341   0.31610   0.31619   0.40460
     Eigenvalues ---    0.40477   0.49936   0.52362   0.63685   0.65882
     Eigenvalues --- 1000.000001000.000001000.000001000.000001000.00000
     Eigenvalues --- 1000.000001000.000001000.000001000.000001000.00000
     Eigenvalues --- 1000.000001000.000001000.000001000.000001000.00000
     Eigenvalues --- 1000.00000
 RFO step:  Lambda=-1.57318700D-02 EMin= 2.30000000D-03
 Linear search not attempted -- first point.
 Iteration  1 RMS(Cart)=  0.03690197 RMS(Int)=  0.00020780
 Iteration  2 RMS(Cart)=  0.00037801 RMS(Int)=  0.00000185
 Iteration  3 RMS(Cart)=  0.00000008 RMS(Int)=  0.00000184
 Variable       Old X    -DE/DX   Delta X   Delta X   Delta X     New X
                                 (Linear)    (Quad)   (Total)
    R1        2.57542  -0.04119   0.00000  -0.07635  -0.07635   2.49907
    R2        2.46575  -0.03334   0.00000  -0.04943  -0.04943   2.41632
    R3        2.11546  -0.00835   0.00000  -0.02514  -0.02514   2.09031
    R4        2.24993   0.00232   0.00000   0.00865   0.00865   2.25858
    R5        1.97610  -0.01957   0.00000  -0.04655  -0.04655   1.92956
    R6        2.41905   0.01882   0.00000   0.08871   0.08871   2.50776
    R7        2.42038   0.01880   0.00000   0.08883   0.08883   2.50921
    R8        2.57567  -0.04122   0.00000  -0.07645  -0.07645   2.49922
    R9        2.46562  -0.03330   0.00000  -0.04936  -0.04936   2.41625
   R10        2.11564  -0.00838   0.00000  -0.02525  -0.02525   2.09039
   R11        2.25106   0.00228   0.00000   0.00848   0.00848   2.25953
   R12        1.97633  -0.01965   0.00000  -0.04675  -0.04675   1.92958
    A1        2.19071  -0.00370   0.00000  -0.01691  -0.01691   2.17380
    A2        2.03058   0.00414   0.00000   0.02150   0.02150   2.05208
    A3        2.06190  -0.00044   0.00000  -0.00459  -0.00459   2.05731
    A4        2.17681  -0.00084   0.00000  -0.00637  -0.00637   2.17044
    A5        1.99160  -0.00050   0.00000  -0.00208  -0.00208   1.98953
    A6        2.11477   0.00134   0.00000   0.00845   0.00845   2.12321
    A7        1.92363   0.00406   0.00000   0.02058   0.02059   1.94422
    A8        2.19105  -0.00373   0.00000  -0.01707  -0.01707   2.17397
    A9        2.03028   0.00417   0.00000   0.02163   0.02163   2.05191
   A10        2.06186  -0.00043   0.00000  -0.00456  -0.00456   2.05731
   A11        2.17666  -0.00082   0.00000  -0.00634  -0.00634   2.17032
   A12        1.99048  -0.00043   0.00000  -0.00159  -0.00159   1.98889
   A13        2.11605   0.00125   0.00000   0.00793   0.00793   2.12398
   A14        1.92325   0.00408   0.00000   0.02082   0.02081   1.94407
   A15        3.13383   0.00047   0.00000   0.00246   0.00246   3.13630
   A16        3.13361   0.00049   0.00000   0.00283   0.00283   3.13644
   A17        3.14097   0.00001   0.00000   0.00060   0.00061   3.14158
   A18        3.14152   0.00000   0.00000  -0.00001  -0.00001   3.14151
    D1        0.00052   0.00000   0.00000  -0.00001  -0.00001   0.00052
    D2        3.14116   0.00000   0.00000   0.00003   0.00003   3.14120
    D3       -3.14142   0.00001   0.00000   0.00028   0.00028  -3.14115
    D4       -0.00078   0.00001   0.00000   0.00031   0.00032  -0.00047
    D5       -0.00037   0.00000   0.00000   0.00016   0.00016  -0.00022
    D6        3.14158  -0.00001   0.00000  -0.00013  -0.00013   3.14145
    D7       -0.00093   0.00000   0.00000   0.00012   0.00013  -0.00080
    D8       -3.14126  -0.00001   0.00000  -0.00015  -0.00015  -3.14141
    D9        0.00002   0.00000   0.00000  -0.00004  -0.00004  -0.00002
   D10        3.14100   0.00000   0.00000  -0.00004  -0.00004   3.14097
   D11       -0.00032   0.00000   0.00000  -0.00002  -0.00002  -0.00034
   D12       -3.14137   0.00000   0.00000  -0.00002  -0.00002  -3.14139
   D13        3.14142   0.00000   0.00000  -0.00013  -0.00012   3.14130
   D14        0.00037  -0.00001   0.00000  -0.00013  -0.00013   0.00025
   D15        0.00080  -0.00001   0.00000  -0.00020  -0.00020   0.00060
   D16       -3.14095   0.00000   0.00000  -0.00009  -0.00009  -3.14104
         Item               Value     Threshold  Converged?
 Maximum Force            0.041218     0.000015     NO 
 RMS     Force            0.012636     0.000010     NO 
 Maximum Displacement     0.098596     0.000060     NO 
 RMS     Displacement     0.036826     0.000040     NO 
 Predicted change in Energy=-8.186272D-03
 GradGradGradGradGradGradGradGradGradGradGradGradGradGradGradGradGradGrad

                          Input orientation:                          
 ---------------------------------------------------------------------
 Center     Atomic      Atomic             Coordinates (Angstroms)
 Number     Number       Type             X           Y           Z
 ---------------------------------------------------------------------
      1          6           0       -1.864056    0.070889   -0.000012
      2          7           0       -1.107969    1.155880    0.000303
      3          8           0       -1.414597   -1.126176   -0.000087
      4          1           0        0.087172    1.145163    0.000045
      5          1           0       -1.635960    2.029851   -0.000054
      6          1           0       -2.961249    0.211353   -0.000156
      7          6           0        1.864091   -0.070888    0.000079
      8          7           0        1.107961   -1.155947   -0.000009
      9          8           0        1.414853    1.126222   -0.000251
     10          1           0       -0.087684   -1.145078   -0.000077
     11          1           0        2.961299   -0.211549    0.000423
     12          1           0        1.636522   -2.029589    0.000486
 ---------------------------------------------------------------------
                    Distance matrix (angstroms):
                    1          2          3          4          5
     1  C    0.000000
     2  N    1.322450   0.000000
     3  O    1.278662   2.302564   0.000000
     4  H    2.227410   1.195189   2.722919   0.000000
     5  H    1.972197   1.021077   3.163780   1.936971   0.000000
     6  H    1.106147   2.080090   2.044777   3.188239   2.250184
     7  C    3.730842   3.215292   3.444333   2.153188   4.082090
     8  N    3.215278   3.202326   2.522734   2.517363   4.204570
     9  O    3.444557   2.522996   3.616501   1.327816   3.181823
    10  H    2.152690   2.517020   1.327048   2.296905   3.532326
    11  H    4.833614   4.292879   4.470459   3.178250   5.114554
    12  H    4.082408   4.204693   3.182056   3.532638   5.214229
                    6          7          8          9         10
     6  H    0.000000
     7  C    4.833587   0.000000
     8  N    4.292782   1.322530   0.000000
     9  O    4.470710   1.278627   2.302711   0.000000
    10  H    3.177621   2.227848   1.195694   2.723310   0.000000
    11  H    5.937627   1.106188   2.080084   2.044781   3.188694
    12  H    5.114813   1.971877   1.021091   3.163586   1.937845
                   11         12
    11  H    0.000000
    12  H    2.249512   0.000000
 Stoichiometry    C2H6N2O2
 Framework group  C1[X(C2H6N2O2)]
 Deg. of freedom    30
 Full point group                 C1      NOp   1
 Largest Abelian subgroup         C1      NOp   1
 Largest concise Abelian subgroup C1      NOp   1
                         Standard orientation:                         
 ---------------------------------------------------------------------
 Center     Atomic      Atomic             Coordinates (Angstroms)
 Number     Number       Type             X           Y           Z
 ---------------------------------------------------------------------
      1          6           0       -1.865336    0.020729   -0.000021
      2          7           0       -1.138703    1.125662    0.000294
      3          8           0       -1.383846   -1.163815   -0.000096
      4          1           0        0.056295    1.147090    0.000036
      5          1           0       -1.690006    1.985117   -0.000063
      6          1           0       -2.965909    0.131634   -0.000165
      7          6           0        1.865275   -0.020732    0.000071
      8          7           0        1.138600   -1.125734   -0.000018
      9          8           0        1.384005    1.163863   -0.000260
     10          1           0       -0.056904   -1.147024   -0.000086
     11          1           0        2.965869   -0.131834    0.000414
     12          1           0        1.690465   -1.984845    0.000478
 ---------------------------------------------------------------------
 Rotational constants (GHZ):      5.6783530      2.4648048      1.7187475
 Standard basis: 6-31G(d,p) (6D, 7F)
 There are   120 symmetry adapted basis functions of A   symmetry.
 Integral buffers will be    131072 words long.
 Raffenetti 2 integral format.
 Two-electron integral symmetry is turned on.
   120 basis functions,   210 primitive gaussians,   120 cartesian basis functions
    24 alpha electrons       24 beta electrons
       nuclear repulsion energy       238.2588466585 Hartrees.
 NAtoms=   12 NActive=   12 NUniq=   12 SFac= 7.50D-01 NAtFMM=   80 NAOKFM=F Big=F
 Standard density basis: Auto (5D, 7F)
   552 Density fitting functions
 There are   552 symmetry adapted density basis functions of A   symmetry.
 ------------------------------------------------------------------------------
 Polarizable Continuum Model (PCM)
 =================================
 Model                : PCM.
 Atomic radii         : UFF (Universal Force Field).
 Polarization charges : Total charges.
 Charge compensation  : None.
 Solution method      : Matrix inversion.
 Cavity type          : Scaled VdW (van der Waals Surface) (Alpha=1.100).
 Cavity algorithm     : GePol (No added spheres)
                        Default sphere list used, NSphG=   12.
                        Lebedev-Laikov grids with approx.  5.0 points / Ang**2.
                        Smoothing algorithm: Karplus/York (Gamma=1.0000).
                        Polarization charges: spherical gaussians, with
                                              point-specific exponents (IZeta= 3).
                        Self-potential: point-specific (ISelfS= 7).
                        Self-field    : sphere-specific E.n sum rule (ISelfD= 2).
 1st derivatives      : Analytical E(r).r(x)/FMM algorithm (CHGder, D1EAlg=3).
                        Cavity 1st derivative terms included.
 Solvent              : Water, Eps=  78.355300 Eps(inf)=   1.777849
 ------------------------------------------------------------------------------
 Spheres list:
 ISph  on   Nord    Re0     Alpha      Xe            Ye            Ze
    1   C      1    1.926   1.100     -1.865336      0.020729     -0.000021
    2   N      2    1.830   1.100     -1.138703      1.125662      0.000294
    3   O      3    1.750   1.100     -1.383846     -1.163815     -0.000096
    4   H      4    1.443   1.100      0.056295      1.147090      0.000036
    5   H      5    1.443   1.100     -1.690006      1.985117     -0.000063
    6   H      6    1.443   1.100     -2.965909      0.131634     -0.000165
    7   C      7    1.926   1.100      1.865275     -0.020732      0.000071
    8   N      8    1.830   1.100      1.138600     -1.125734     -0.000018
    9   O      9    1.750   1.100      1.384005      1.163863     -0.000260
   10   H     10    1.443   1.100     -0.056904     -1.147024     -0.000086
   11   H     11    1.443   1.100      2.965869     -0.131834      0.000414
   12   H     12    1.443   1.100      1.690465     -1.984845      0.000478
 ------------------------------------------------------------------------------
 One-electron integrals computed using PRISM.
 NBasis=   120 RedAO= T  NBF=   120
 NBsUse=   120 1.00D-06 NBFU=   120
 NBasis=      120 NBas6D=      120 NTT=        7260   NTT6D=     7260
 NDBShl=       96 NDBF=        552 NDBF6D=      636  NNucDB=        0
 IDenFi=        2 ISolve=        0 FullAP=F BlkAPC=T NucTyp=        0
 TolInv= 1.00D-05 TolIt=  1.00D-10 IR12=0.
 Petite list used in FoFDir.
 MinBra= 0 MaxBra= 3 Meth= 1.
 IRaf=       0 NMat=   1 IRICut=       1 DoRegI=T DoRafI=F ISym2E= 1 JSym2E=1.
  NDBF=   552  NBFD=   552
 NRank=   552 NBFDU=   552
 S*AI*S=  6.44285464958    
 Initial guess read from the read-write file.
 B after Tr=     0.000000    0.000000    0.000000
         Rot=    1.000000    0.000000    0.000000    0.000000 Ang=   0.00 deg.
 Initial guess orbital symmetries:
       Occupied  (A) (A) (A) (A) (A) (A) (A) (A) (A) (A) (A) (A)
                 (A) (A) (A) (A) (A) (A) (A) (A) (A) (A) (A) (A)
       Virtual   (A) (A) (A) (A) (A) (A) (A) (A) (A) (A) (A) (A)
                 (A) (A) (A) (A) (A) (A) (A) (A) (A) (A) (A) (A)
                 (A) (A) (A) (A) (A) (A) (A) (A) (A) (A) (A) (A)
                 (A) (A) (A) (A) (A) (A) (A) (A) (A) (A) (A) (A)
                 (A) (A) (A) (A) (A) (A) (A) (A) (A) (A) (A) (A)
                 (A) (A) (A) (A) (A) (A) (A) (A) (A) (A) (A) (A)
                 (A) (A) (A) (A) (A) (A) (A) (A) (A) (A) (A) (A)
                 (A) (A) (A) (A) (A) (A) (A) (A) (A) (A) (A) (A)
 Harris functional with IExCor= 1009 diagonalized for initial guess.
 ExpMin= 1.61D-01 ExpMax= 5.48D+03 ExpMxC= 8.25D+02 IAcc=1 IRadAn=         1 AccDes= 0.00D+00
 HarFok:  IExCor= 1009 AccDes= 0.00D+00 IRadAn=         1 IDoV= 1
 ScaDFX=  1.000000  1.000000  1.000000  1.000000
 FoFCou: FMM=F IPFlag=           0 FMFlag=      100000 FMFlg1=           0
         NFxFlg=           0 DoJE=T BraDBF=F KetDBF=T FulRan=T
         Omega=  0.000000  0.000000  1.000000  0.000000  0.000000 ICntrl=     500 IOpCl=  0
         NMat0=    1 NMatS0=    1 NMatT0=    0 NMatD0=    1 NMtDS0=    0 NMtDT0=    0
         I1Cent=           4 NGrid=           0.
 Petite list used in FoFCou.
 Requested convergence on RMS density matrix=1.00D-08 within 128 cycles.
 Requested convergence on MAX density matrix=1.00D-06.
 Requested convergence on             energy=1.00D-06.
 No special actions if energy rises.
 FoFCou: FMM=F IPFlag=           0 FMFlag=      100000 FMFlg1=           0
         NFxFlg=           0 DoJE=T BraDBF=T KetDBF=F FulRan=T
         Omega=  0.000000  0.000000  1.000000  0.000000  0.000000 ICntrl=     500 IOpCl=  0
         NMat0=    1 NMatS0=    1 NMatT0=    0 NMatD0=    1 NMtDS0=    0 NMtDT0=    0
         I1Cent=           5 NGrid=           0.
 Symmetry not used in FoFCou.
 Error on total polarization charges =  0.00465
 SCF Done:  E(RPBE-PBE) =  -339.433417450     A.U. after   11 cycles
             Convg  =    0.1002D-08             -V/T =  2.0093
 D1PCM: PCM CHGder 1st derivatives, ID1Alg=3 FixD1E=F DoIter=F DoCFld=F I1PDM=0.
 Calling FoFJK, ICntrl=      2527 FMM=F ISym2X=0 I1Cent= 4 IOpClX= 0 NMat=1 NMatS=1 NMatT=0.
 ***** Axes restored to original set *****
 -------------------------------------------------------------------
 Center     Atomic                   Forces (Hartrees/Bohr)
 Number     Number              X              Y              Z
 -------------------------------------------------------------------
      1        6           0.005628514   -0.005516437    0.000002279
      2        7           0.003241824    0.003704388   -0.000012307
      3        8          -0.011618206    0.002974315    0.000001747
      4        1          -0.018741198    0.001228920    0.000000475
      5        1           0.002642522    0.000774955    0.000008212
      6        1          -0.001021198   -0.000029243   -0.000002368
      7        6          -0.005624837    0.005472217   -0.000005779
      8        7          -0.003191004   -0.003612606    0.000006373
      9        8           0.011573556   -0.002968799    0.000003102
     10        1           0.018783105   -0.001264714    0.000001700
     11        1           0.001016470    0.000036817   -0.000000158
     12        1          -0.002689547   -0.000799811   -0.000003276
 -------------------------------------------------------------------
 Cartesian Forces:  Max     0.018783105 RMS     0.005731088

 GradGradGradGradGradGradGradGradGradGradGradGradGradGradGradGradGradGrad
 Berny optimization.
 Using GEDIIS/GDIIS optimizer.
 Internal  Forces:  Max     0.009968935 RMS     0.003198224
 Search for a local minimum.
 Step number   2 out of a maximum of   56
 All quantities printed in internal units (Hartrees-Bohrs-Radians)
 Mixed Optimization -- RFO/linear search
 Update second derivatives using D2CorX and points    1    2
 DE= -8.81D-03 DEPred=-8.19D-03 R= 1.08D+00
 SS=  1.41D+00  RLast= 2.02D-01 DXNew= 5.0454D-01 6.0541D-01
 Trust test= 1.08D+00 RLast= 2.02D-01 DXMaxT set to 5.05D-01
 Use linear search instead of GDIIS.
     Eigenvalues ---    0.00230   0.00806   0.00884   0.01384   0.01517
     Eigenvalues ---    0.01892   0.02418   0.02451   0.02462   0.05323
     Eigenvalues ---    0.05673   0.14137   0.16000   0.16000   0.16000
     Eigenvalues ---    0.16125   0.17090   0.18898   0.19410   0.20869
     Eigenvalues ---    0.24557   0.25809   0.31614   0.32003   0.40469
     Eigenvalues ---    0.41051   0.49989   0.58113   0.63675   0.67590
     Eigenvalues --- 1000.000001000.000001000.000001000.000001000.00000
     Eigenvalues --- 1000.000001000.000001000.000001000.000001000.00000
     Eigenvalues --- 1000.000001000.000001000.000001000.000001000.00000
     Eigenvalues --- 1000.00000
 RFO step:  Lambda=-2.51332796D-03 EMin= 2.30000100D-03
 Quartic linear search produced a step of  0.09723.
 Iteration  1 RMS(Cart)=  0.02233965 RMS(Int)=  0.00027025
 Iteration  2 RMS(Cart)=  0.00035200 RMS(Int)=  0.00000075
 Iteration  3 RMS(Cart)=  0.00000015 RMS(Int)=  0.00000075
 Variable       Old X    -DE/DX   Delta X   Delta X   Delta X     New X
                                 (Linear)    (Quad)   (Total)
    R1        2.49907   0.00172  -0.00742  -0.00036  -0.00779   2.49128
    R2        2.41632  -0.00190  -0.00481  -0.00579  -0.01059   2.40573
    R3        2.09031   0.00101  -0.00244   0.00232  -0.00013   2.09019
    R4        2.25858  -0.00882   0.00084  -0.03735  -0.03651   2.22207
    R5        1.92956  -0.00070  -0.00453  -0.00417  -0.00869   1.92086
    R6        2.50776   0.00997   0.00863   0.05820   0.06683   2.57458
    R7        2.50921   0.00994   0.00864   0.05813   0.06677   2.57598
    R8        2.49922   0.00168  -0.00743  -0.00043  -0.00787   2.49135
    R9        2.41625  -0.00189  -0.00480  -0.00576  -0.01056   2.40569
   R10        2.09039   0.00100  -0.00245   0.00229  -0.00016   2.09023
   R11        2.25953  -0.00883   0.00082  -0.03747  -0.03665   2.22289
   R12        1.92958  -0.00071  -0.00455  -0.00419  -0.00874   1.92084
    A1        2.17380   0.00295  -0.00164   0.01870   0.01705   2.19085
    A2        2.05208  -0.00131   0.00209  -0.00783  -0.00574   2.04634
    A3        2.05731  -0.00164  -0.00045  -0.01087  -0.01132   2.04599
    A4        2.17044  -0.00340  -0.00062  -0.01651  -0.01712   2.15332
    A5        1.98953   0.00427  -0.00020   0.02541   0.02521   2.01474
    A6        2.12321  -0.00087   0.00082  -0.00890  -0.00808   2.11513
    A7        1.94422   0.00201   0.00200   0.02410   0.02611   1.97033
    A8        2.17397   0.00294  -0.00166   0.01860   0.01694   2.19091
    A9        2.05191  -0.00130   0.00210  -0.00773  -0.00562   2.04628
   A10        2.05731  -0.00164  -0.00044  -0.01087  -0.01131   2.04599
   A11        2.17032  -0.00338  -0.00062  -0.01637  -0.01699   2.15333
   A12        1.98889   0.00431  -0.00015   0.02570   0.02555   2.01443
   A13        2.12398  -0.00093   0.00077  -0.00933  -0.00856   2.11542
   A14        1.94407   0.00202   0.00202   0.02413   0.02615   1.97022
   A15        3.13630  -0.00157   0.00024  -0.02630  -0.02606   3.11024
   A16        3.13644  -0.00157   0.00028  -0.02635  -0.02608   3.11036
   A17        3.14158   0.00000   0.00006  -0.00031  -0.00025   3.14133
   A18        3.14151   0.00000   0.00000   0.00026   0.00026   3.14176
    D1        0.00052   0.00000   0.00000  -0.00004  -0.00004   0.00048
    D2        3.14120   0.00000   0.00000   0.00027   0.00027   3.14147
    D3       -3.14115   0.00000   0.00003  -0.00009  -0.00006  -3.14121
    D4       -0.00047   0.00000   0.00003   0.00022   0.00025  -0.00022
    D5       -0.00022   0.00000   0.00002  -0.00002  -0.00001  -0.00023
    D6        3.14145   0.00000  -0.00001   0.00003   0.00001   3.14146
    D7       -0.00080   0.00000   0.00001   0.00009   0.00010  -0.00071
    D8       -3.14141   0.00000  -0.00001  -0.00015  -0.00016  -3.14157
    D9       -0.00002   0.00000   0.00000   0.00001   0.00000  -0.00001
   D10        3.14097   0.00000   0.00000   0.00024   0.00023   3.14120
   D11       -0.00034   0.00000   0.00000   0.00005   0.00005  -0.00029
   D12       -3.14139   0.00000   0.00000  -0.00007  -0.00007  -3.14146
   D13        3.14130   0.00000  -0.00001   0.00005   0.00004   3.14134
   D14        0.00025   0.00000  -0.00001  -0.00007  -0.00008   0.00016
   D15        0.00060   0.00000  -0.00002  -0.00006  -0.00008   0.00052
   D16       -3.14104   0.00000  -0.00001  -0.00006  -0.00007  -3.14111
         Item               Value     Threshold  Converged?
 Maximum Force            0.009969     0.000015     NO 
 RMS     Force            0.003198     0.000010     NO 
 Maximum Displacement     0.069898     0.000060     NO 
 RMS     Displacement     0.022540     0.000040     NO 
 Predicted change in Energy=-1.386523D-03
 GradGradGradGradGradGradGradGradGradGradGradGradGradGradGradGradGradGrad

                          Input orientation:                          
 ---------------------------------------------------------------------
 Center     Atomic      Atomic             Coordinates (Angstroms)
 Number     Number       Type             X           Y           Z
 ---------------------------------------------------------------------
      1          6           0       -1.860145    0.080625   -0.000072
      2          7           0       -1.125547    1.175322    0.000235
      3          8           0       -1.412026   -1.110955   -0.000037
      4          1           0        0.050278    1.165316    0.000109
      5          1           0       -1.644510    2.049337    0.000039
      6          1           0       -2.958858    0.208077   -0.000294
      7          6           0        1.860279   -0.080636    0.000061
      8          7           0        1.125563   -1.175298    0.000061
      9          8           0        1.412344    1.110991   -0.000225
     10          1           0       -0.050695   -1.165194    0.000077
     11          1           0        2.958994   -0.208258    0.000299
     12          1           0        1.644706   -2.049195    0.000434
 ---------------------------------------------------------------------
                    Distance matrix (angstroms):
                    1          2          3          4          5
     1  C    0.000000
     2  N    1.318330   0.000000
     3  O    1.273057   2.304155   0.000000
     4  H    2.196878   1.175868   2.705503   0.000000
     5  H    1.980485   1.016476   3.168831   1.911491   0.000000
     6  H    1.106080   2.072822   2.032863   3.157721   2.262244
     7  C    3.723917   3.239226   3.430676   2.197385   4.101259
     8  N    3.239104   3.254675   2.538405   2.575794   4.251067
     9  O    3.430866   2.538707   3.593621   1.363149   3.197631
    10  H    2.196856   2.575523   1.362411   2.332697   3.587959
    11  H    4.827790   4.312514   4.463259   3.216728   5.127278
    12  H    4.101234   4.251095   3.197485   3.588214   5.255179
                    6          7          8          9         10
     6  H    0.000000
     7  C    4.827777   0.000000
     8  N    4.312333   1.318367   0.000000
     9  O    4.463481   1.273037   2.304206   0.000000
    10  H    3.216097   2.197291   1.176301   2.705828   0.000000
    11  H    5.932479   1.106103   2.072834   2.032867   3.158158
    12  H    5.127190   1.980327   1.016467   3.168717   1.912026
                   11         12
    11  H    0.000000
    12  H    2.261946   0.000000
 Stoichiometry    C2H6N2O2
 Framework group  C1[X(C2H6N2O2)]
 Deg. of freedom    30
 Full point group                 C1      NOp   1
 Largest Abelian subgroup         C1      NOp   1
 Largest concise Abelian subgroup C1      NOp   1
                         Standard orientation:                         
 ---------------------------------------------------------------------
 Center     Atomic      Atomic             Coordinates (Angstroms)
 Number     Number       Type             X           Y           Z
 ---------------------------------------------------------------------
      1          6           0       -1.861940   -0.008852   -0.000084
      2          7           0       -1.180786    1.119874    0.000222
      3          8           0       -1.357089   -1.177527   -0.000049
      4          1           0       -0.005838    1.166373    0.000097
      5          1           0       -1.741141    1.967946    0.000027
      6          1           0       -2.965507    0.065664   -0.000306
      7          6           0        1.861935    0.008821    0.000049
      8          7           0        1.180661   -1.119876    0.000049
      9          8           0        1.357265    1.177552   -0.000237
     10          1           0        0.005276   -1.166297    0.000064
     11          1           0        2.965513   -0.065865    0.000287
     12          1           0        1.741192   -1.967821    0.000421
 ---------------------------------------------------------------------
 Rotational constants (GHZ):      5.6408689      2.4598270      1.7128852
 Standard basis: 6-31G(d,p) (6D, 7F)
 There are   120 symmetry adapted basis functions of A   symmetry.
 Integral buffers will be    131072 words long.
 Raffenetti 2 integral format.
 Two-electron integral symmetry is turned on.
   120 basis functions,   210 primitive gaussians,   120 cartesian basis functions
    24 alpha electrons       24 beta electrons
       nuclear repulsion energy       238.1466596996 Hartrees.
 NAtoms=   12 NActive=   12 NUniq=   12 SFac= 7.50D-01 NAtFMM=   80 NAOKFM=F Big=F
 Standard density basis: Auto (5D, 7F)
   552 Density fitting functions
 There are   552 symmetry adapted density basis functions of A   symmetry.
 ------------------------------------------------------------------------------
 Polarizable Continuum Model (PCM)
 =================================
 Model                : PCM.
 Atomic radii         : UFF (Universal Force Field).
 Polarization charges : Total charges.
 Charge compensation  : None.
 Solution method      : Matrix inversion.
 Cavity type          : Scaled VdW (van der Waals Surface) (Alpha=1.100).
 Cavity algorithm     : GePol (No added spheres)
                        Default sphere list used, NSphG=   12.
                        Lebedev-Laikov grids with approx.  5.0 points / Ang**2.
                        Smoothing algorithm: Karplus/York (Gamma=1.0000).
                        Polarization charges: spherical gaussians, with
                                              point-specific exponents (IZeta= 3).
                        Self-potential: point-specific (ISelfS= 7).
                        Self-field    : sphere-specific E.n sum rule (ISelfD= 2).
 1st derivatives      : Analytical E(r).r(x)/FMM algorithm (CHGder, D1EAlg=3).
                        Cavity 1st derivative terms included.
 Solvent              : Water, Eps=  78.355300 Eps(inf)=   1.777849
 ------------------------------------------------------------------------------
 Spheres list:
 ISph  on   Nord    Re0     Alpha      Xe            Ye            Ze
    1   C      1    1.926   1.100     -1.861940     -0.008852     -0.000084
    2   N      2    1.830   1.100     -1.180786      1.119874      0.000222
    3   O      3    1.750   1.100     -1.357089     -1.177527     -0.000049
    4   H      4    1.443   1.100     -0.005838      1.166373      0.000097
    5   H      5    1.443   1.100     -1.741141      1.967946      0.000027
    6   H      6    1.443   1.100     -2.965507      0.065664     -0.000306
    7   C      7    1.926   1.100      1.861935      0.008821      0.000049
    8   N      8    1.830   1.100      1.180661     -1.119876      0.000049
    9   O      9    1.750   1.100      1.357265      1.177552     -0.000237
   10   H     10    1.443   1.100      0.005276     -1.166297      0.000064
   11   H     11    1.443   1.100      2.965513     -0.065865      0.000287
   12   H     12    1.443   1.100      1.741192     -1.967821      0.000421
 ------------------------------------------------------------------------------
 One-electron integrals computed using PRISM.
 NBasis=   120 RedAO= T  NBF=   120
 NBsUse=   120 1.00D-06 NBFU=   120
 NBasis=      120 NBas6D=      120 NTT=        7260   NTT6D=     7260
 NDBShl=       96 NDBF=        552 NDBF6D=      636  NNucDB=        0
 IDenFi=        2 ISolve=        0 FullAP=F BlkAPC=T NucTyp=        0
 TolInv= 1.00D-05 TolIt=  1.00D-10 IR12=0.
 Petite list used in FoFDir.
 MinBra= 0 MaxBra= 3 Meth= 1.
 IRaf=       0 NMat=   1 IRICut=       1 DoRegI=T DoRafI=F ISym2E= 1 JSym2E=1.
  NDBF=   552  NBFD=   552
 NRank=   552 NBFDU=   552
 S*AI*S=  6.44981681572    
 Initial guess read from the read-write file.
 B after Tr=     0.000000    0.000000    0.000000
         Rot=    1.000000    0.000000    0.000000    0.000000 Ang=   0.00 deg.
 Initial guess orbital symmetries:
       Occupied  (A) (A) (A) (A) (A) (A) (A) (A) (A) (A) (A) (A)
                 (A) (A) (A) (A) (A) (A) (A) (A) (A) (A) (A) (A)
       Virtual   (A) (A) (A) (A) (A) (A) (A) (A) (A) (A) (A) (A)
                 (A) (A) (A) (A) (A) (A) (A) (A) (A) (A) (A) (A)
                 (A) (A) (A) (A) (A) (A) (A) (A) (A) (A) (A) (A)
                 (A) (A) (A) (A) (A) (A) (A) (A) (A) (A) (A) (A)
                 (A) (A) (A) (A) (A) (A) (A) (A) (A) (A) (A) (A)
                 (A) (A) (A) (A) (A) (A) (A) (A) (A) (A) (A) (A)
                 (A) (A) (A) (A) (A) (A) (A) (A) (A) (A) (A) (A)
                 (A) (A) (A) (A) (A) (A) (A) (A) (A) (A) (A) (A)
 Harris functional with IExCor= 1009 diagonalized for initial guess.
 ExpMin= 1.61D-01 ExpMax= 5.48D+03 ExpMxC= 8.25D+02 IAcc=1 IRadAn=         1 AccDes= 0.00D+00
 HarFok:  IExCor= 1009 AccDes= 0.00D+00 IRadAn=         1 IDoV= 1
 ScaDFX=  1.000000  1.000000  1.000000  1.000000
 FoFCou: FMM=F IPFlag=           0 FMFlag=      100000 FMFlg1=           0
         NFxFlg=           0 DoJE=T BraDBF=F KetDBF=T FulRan=T
         Omega=  0.000000  0.000000  1.000000  0.000000  0.000000 ICntrl=     500 IOpCl=  0
         NMat0=    1 NMatS0=    1 NMatT0=    0 NMatD0=    1 NMtDS0=    0 NMtDT0=    0
         I1Cent=           4 NGrid=           0.
 Petite list used in FoFCou.
 Requested convergence on RMS density matrix=1.00D-08 within 128 cycles.
 Requested convergence on MAX density matrix=1.00D-06.
 Requested convergence on             energy=1.00D-06.
 No special actions if energy rises.
 FoFCou: FMM=F IPFlag=           0 FMFlag=      100000 FMFlg1=           0
         NFxFlg=           0 DoJE=T BraDBF=T KetDBF=F FulRan=T
         Omega=  0.000000  0.000000  1.000000  0.000000  0.000000 ICntrl=     500 IOpCl=  0
         NMat0=    1 NMatS0=    1 NMatT0=    0 NMatD0=    1 NMtDS0=    0 NMtDT0=    0
         I1Cent=           5 NGrid=           0.
 Symmetry not used in FoFCou.
 Error on total polarization charges =  0.00463
 SCF Done:  E(RPBE-PBE) =  -339.435811287     A.U. after   11 cycles
             Convg  =    0.9407D-09             -V/T =  2.0092
 D1PCM: PCM CHGder 1st derivatives, ID1Alg=3 FixD1E=F DoIter=F DoCFld=F I1PDM=0.
 Calling FoFJK, ICntrl=      2527 FMM=F ISym2X=0 I1Cent= 4 IOpClX= 0 NMat=1 NMatS=1 NMatT=0.
 ***** Axes restored to original set *****
 -------------------------------------------------------------------
 Center     Atomic                   Forces (Hartrees/Bohr)
 Number     Number              X              Y              Z
 -------------------------------------------------------------------
      1        6          -0.002420754   -0.008079754    0.000006955
      2        7           0.013269215    0.005155002   -0.000002660
      3        8          -0.008351116    0.000386956   -0.000001610
      4        1          -0.020205428   -0.000130476   -0.000003179
      5        1          -0.000309585    0.002750935    0.000000909
      6        1          -0.001771327    0.001332226   -0.000002127
      7        6           0.002416356    0.008060368   -0.000003245
      8        7          -0.013272566   -0.005109244    0.000006470
      9        8           0.008313728   -0.000381056    0.000004279
     10        1           0.020257959    0.000117747   -0.000004793
     11        1           0.001772614   -0.001331164   -0.000001019
     12        1           0.000300903   -0.002771539    0.000000019
 -------------------------------------------------------------------
 Cartesian Forces:  Max     0.020257959 RMS     0.006519104

 GradGradGradGradGradGradGradGradGradGradGradGradGradGradGradGradGradGrad
 Berny optimization.
 Using GEDIIS/GDIIS optimizer.
 Internal  Forces:  Max     0.010342748 RMS     0.003501055
 Search for a local minimum.
 Step number   3 out of a maximum of   56
 All quantities printed in internal units (Hartrees-Bohrs-Radians)
 Mixed Optimization -- RFO/linear search
 Update second derivatives using D2CorX and points    1    2    3
 DE= -2.39D-03 DEPred=-1.39D-03 R= 1.73D+00
 SS=  1.41D+00  RLast= 1.33D-01 DXNew= 8.4853D-01 3.9946D-01
 Trust test= 1.73D+00 RLast= 1.33D-01 DXMaxT set to 5.05D-01
 Use linear search instead of GDIIS.
     Eigenvalues ---    0.00230   0.00817   0.00883   0.01391   0.01531
     Eigenvalues ---    0.01860   0.01917   0.02424   0.02450   0.02462
     Eigenvalues ---    0.05817   0.06069   0.16000   0.16000   0.16040
     Eigenvalues ---    0.16240   0.17382   0.18952   0.19394   0.23883
     Eigenvalues ---    0.24564   0.26249   0.31614   0.31953   0.40469
     Eigenvalues ---    0.42482   0.50060   0.61842   0.63658   0.93365
     Eigenvalues --- 1000.000001000.000001000.000001000.000001000.00000
     Eigenvalues --- 1000.000001000.000001000.000001000.000001000.00000
     Eigenvalues --- 1000.000001000.000001000.000001000.000001000.00000
     Eigenvalues --- 1000.00000
 RFO step:  Lambda=-5.07590030D-03 EMin= 2.30001027D-03
 Quartic linear search produced a step of  2.00000.
 Iteration  1 RMS(Cart)=  0.07228347 RMS(Int)=  0.02325776
 Iteration  2 RMS(Cart)=  0.02721444 RMS(Int)=  0.00007947
 Iteration  3 RMS(Cart)=  0.00012097 RMS(Int)=  0.00002769
 Iteration  4 RMS(Cart)=  0.00000001 RMS(Int)=  0.00002769
 Variable       Old X    -DE/DX   Delta X   Delta X   Delta X     New X
                                 (Linear)    (Quad)   (Total)
    R1        2.49128   0.00734  -0.01557   0.00315  -0.01241   2.47887
    R2        2.40573   0.00086  -0.02118  -0.02072  -0.04190   2.36383
    R3        2.09019   0.00191  -0.00025   0.00604   0.00579   2.09598
    R4        2.22207  -0.01032  -0.07302  -0.11354  -0.18656   2.03551
    R5        1.92086   0.00253  -0.01739  -0.00562  -0.02301   1.89785
    R6        2.57458   0.00992   0.13365   0.17997   0.31362   2.88820
    R7        2.57598   0.00989   0.13354   0.17978   0.31332   2.88930
    R8        2.49135   0.00732  -0.01573   0.00302  -0.01272   2.47864
    R9        2.40569   0.00086  -0.02113  -0.02065  -0.04178   2.36391
   R10        2.09023   0.00191  -0.00032   0.00600   0.00568   2.09592
   R11        2.22289  -0.01034  -0.07329  -0.11402  -0.18732   2.03557
   R12        1.92084   0.00254  -0.01747  -0.00563  -0.02310   1.89774
    A1        2.19085  -0.00036   0.03411  -0.01087   0.02324   2.21409
    A2        2.04634  -0.00100  -0.01148  -0.00735  -0.01883   2.02751
    A3        2.04599   0.00137  -0.02263   0.01823  -0.00441   2.04158
    A4        2.15332  -0.00173  -0.03425  -0.04452  -0.07876   2.07456
    A5        2.01474   0.00197   0.05042   0.04256   0.09297   2.10771
    A6        2.11513  -0.00024  -0.01617   0.00195  -0.01422   2.10091
    A7        1.97033   0.00147   0.05221   0.02176   0.07397   2.04430
    A8        2.19091  -0.00037   0.03387  -0.01103   0.02284   2.21375
    A9        2.04628  -0.00100  -0.01125  -0.00722  -0.01847   2.02781
   A10        2.04599   0.00137  -0.02263   0.01825  -0.00438   2.04162
   A11        2.15333  -0.00172  -0.03398  -0.04438  -0.07837   2.07495
   A12        2.01443   0.00198   0.05110   0.04307   0.09416   2.10860
   A13        2.11542  -0.00026  -0.01711   0.00132  -0.01579   2.09963
   A14        1.97022   0.00147   0.05230   0.02188   0.07418   2.04440
   A15        3.11024   0.00062  -0.05211   0.03349  -0.01861   3.09162
   A16        3.11036   0.00062  -0.05216   0.03367  -0.01849   3.09187
   A17        3.14133   0.00000  -0.00050   0.00278   0.00229   3.14362
   A18        3.14176   0.00000   0.00052  -0.00265  -0.00215   3.13962
    D1        0.00048   0.00000  -0.00008  -0.00017  -0.00023   0.00025
    D2        3.14147   0.00000   0.00054  -0.00066  -0.00007   3.14140
    D3       -3.14121   0.00000  -0.00012   0.00022   0.00012  -3.14108
    D4       -0.00022   0.00000   0.00050  -0.00026   0.00028   0.00006
    D5       -0.00023   0.00000  -0.00002   0.00019   0.00024   0.00002
    D6        3.14146   0.00000   0.00003  -0.00020  -0.00011   3.14135
    D7       -0.00071   0.00000   0.00019   0.00031   0.00050  -0.00021
    D8       -3.14157   0.00000  -0.00032  -0.00025  -0.00048   3.14113
    D9       -0.00001   0.00000   0.00001   0.00004   0.00006   0.00005
   D10        3.14120   0.00000   0.00047  -0.00100  -0.00047   3.14073
   D11       -0.00029   0.00000   0.00009   0.00012   0.00023  -0.00006
   D12       -3.14146   0.00000  -0.00014   0.00015   0.00004  -3.14142
   D13        3.14134   0.00000   0.00007   0.00006   0.00015   3.14149
   D14        0.00016   0.00000  -0.00016   0.00009  -0.00004   0.00013
   D15        0.00052   0.00000  -0.00016  -0.00013  -0.00023   0.00029
   D16       -3.14111   0.00000  -0.00014  -0.00007  -0.00015  -3.14126
         Item               Value     Threshold  Converged?
 Maximum Force            0.010343     0.000015     NO 
 RMS     Force            0.003501     0.000010     NO 
 Maximum Displacement     0.315458     0.000060     NO 
 RMS     Displacement     0.085220     0.000040     NO 
 Predicted change in Energy=-7.436176D-03
 GradGradGradGradGradGradGradGradGradGradGradGradGradGradGradGradGradGrad

                          Input orientation:                          
 ---------------------------------------------------------------------
 Center     Atomic      Atomic             Coordinates (Angstroms)
 Number     Number       Type             X           Y           Z
 ---------------------------------------------------------------------
      1          6           0       -1.872581    0.111370    0.000210
      2          7           0       -1.192445    1.233036   -0.000019
      3          8           0       -1.405798   -1.049157   -0.000065
      4          1           0       -0.116221    1.188541   -0.000732
      5          1           0       -1.664030    2.119730    0.000074
      6          1           0       -2.977396    0.209259    0.000444
      7          6           0        1.873053   -0.111451    0.000255
      8          7           0        1.192494   -1.232716   -0.000080
      9          8           0        1.406365    1.049160   -0.000144
     10          1           0        0.116237   -1.188177   -0.000714
     11          1           0        2.977823   -0.209481    0.001014
     12          1           0        1.662878   -2.119983    0.000446
 ---------------------------------------------------------------------
                    Distance matrix (angstroms):
                    1          2          3          4          5
     1  C    0.000000
     2  N    1.311761   0.000000
     3  O    1.250884   2.292143   0.000000
     4  H    2.060363   1.077144   2.582692   0.000000
     5  H    2.019159   1.004301   3.179391   1.806330   0.000000
     6  H    1.109143   2.057709   2.013338   3.024122   2.318368
     7  C    3.752256   3.347376   3.410301   2.376382   4.182000
     8  N    3.346828   3.430432   2.604768   2.752312   4.404387
     9  O    3.410416   2.605307   3.508731   1.528952   3.251683
    10  H    2.375757   2.752257   1.528371   2.388058   3.756541
    11  H    4.861005   4.412708   4.463316   3.395228   5.193460
    12  H    4.180718   4.404044   3.250145   3.756531   5.389201
                    6          7          8          9         10
     6  H    0.000000
     7  C    4.861040   0.000000
     8  N    4.412174   1.311639   0.000000
     9  O    4.463496   1.250926   2.291877   0.000000
    10  H    3.394613   2.060519   1.077178   2.582655   0.000000
    11  H    5.969923   1.109111   2.057769   2.013370   3.024322
    12  H    5.192062   2.019498   1.004243   3.179507   1.805647
                   11         12
    11  H    0.000000
    12  H    2.319289   0.000000
 Stoichiometry    C2H6N2O2
 Framework group  C1[X(C2H6N2O2)]
 Deg. of freedom    30
 Full point group                 C1      NOp   1
 Largest Abelian subgroup         C1      NOp   1
 Largest concise Abelian subgroup C1      NOp   1
                         Standard orientation:                         
 ---------------------------------------------------------------------
 Center     Atomic      Atomic             Coordinates (Angstroms)
 Number     Number       Type             X           Y           Z
 ---------------------------------------------------------------------
      1          6           0        1.872612    0.113250    0.000190
      2          7           0        1.331387   -1.081653   -0.000039
      3          8           0        1.270493    1.209682   -0.000085
      4          1           0        0.257558   -1.166084   -0.000752
      5          1           0        1.905551   -1.905640    0.000054
      6          1           0        2.981208    0.148086    0.000424
      7          6           0       -1.872809   -0.113122    0.000235
      8          7           0       -1.331116    1.081434   -0.000100
      9          8           0       -1.270774   -1.209649   -0.000164
     10          1           0       -0.257249    1.165824   -0.000734
     11          1           0       -2.981377   -0.147814    0.000994
     12          1           0       -1.904156    1.906132    0.000426
 ---------------------------------------------------------------------
 Rotational constants (GHZ):      5.6409650      2.3928294      1.6801360
 Standard basis: 6-31G(d,p) (6D, 7F)
 There are   120 symmetry adapted basis functions of A   symmetry.
 Integral buffers will be    131072 words long.
 Raffenetti 2 integral format.
 Two-electron integral symmetry is turned on.
   120 basis functions,   210 primitive gaussians,   120 cartesian basis functions
    24 alpha electrons       24 beta electrons
       nuclear repulsion energy       237.7159974623 Hartrees.
 NAtoms=   12 NActive=   12 NUniq=   12 SFac= 7.50D-01 NAtFMM=   80 NAOKFM=F Big=F
 Standard density basis: Auto (5D, 7F)
   552 Density fitting functions
 There are   552 symmetry adapted density basis functions of A   symmetry.
 ------------------------------------------------------------------------------
 Polarizable Continuum Model (PCM)
 =================================
 Model                : PCM.
 Atomic radii         : UFF (Universal Force Field).
 Polarization charges : Total charges.
 Charge compensation  : None.
 Solution method      : Matrix inversion.
 Cavity type          : Scaled VdW (van der Waals Surface) (Alpha=1.100).
 Cavity algorithm     : GePol (No added spheres)
                        Default sphere list used, NSphG=   12.
                        Lebedev-Laikov grids with approx.  5.0 points / Ang**2.
                        Smoothing algorithm: Karplus/York (Gamma=1.0000).
                        Polarization charges: spherical gaussians, with
                                              point-specific exponents (IZeta= 3).
                        Self-potential: point-specific (ISelfS= 7).
                        Self-field    : sphere-specific E.n sum rule (ISelfD= 2).
 1st derivatives      : Analytical E(r).r(x)/FMM algorithm (CHGder, D1EAlg=3).
                        Cavity 1st derivative terms included.
 Solvent              : Water, Eps=  78.355300 Eps(inf)=   1.777849
 ------------------------------------------------------------------------------
 Spheres list:
 ISph  on   Nord    Re0     Alpha      Xe            Ye            Ze
    1   C      1    1.925   1.100      1.872612      0.113250      0.000190
    2   N      2    1.830   1.100      1.331387     -1.081653     -0.000039
    3   O      3    1.750   1.100      1.270493      1.209682     -0.000085
    4   H      4    1.443   1.100      0.257558     -1.166084     -0.000752
    5   H      5    1.443   1.100      1.905551     -1.905640      0.000054
    6   H      6    1.443   1.100      2.981208      0.148086      0.000424
    7   C      7    1.925   1.100     -1.872809     -0.113122      0.000235
    8   N      8    1.830   1.100     -1.331116      1.081434     -0.000100
    9   O      9    1.750   1.100     -1.270774     -1.209649     -0.000164
   10   H     10    1.443   1.100     -0.257249      1.165824     -0.000734
   11   H     11    1.443   1.100     -2.981377     -0.147814      0.000994
   12   H     12    1.443   1.100     -1.904156      1.906132      0.000426
 ------------------------------------------------------------------------------
 One-electron integrals computed using PRISM.
 NBasis=   120 RedAO= T  NBF=   120
 NBsUse=   120 1.00D-06 NBFU=   120
 NBasis=      120 NBas6D=      120 NTT=        7260   NTT6D=     7260
 NDBShl=       96 NDBF=        552 NDBF6D=      636  NNucDB=        0
 IDenFi=        2 ISolve=        0 FullAP=F BlkAPC=T NucTyp=        0
 TolInv= 1.00D-05 TolIt=  1.00D-10 IR12=0.
 Petite list used in FoFDir.
 MinBra= 0 MaxBra= 3 Meth= 1.
 IRaf=       0 NMat=   1 IRICut=       1 DoRegI=T DoRafI=F ISym2E= 1 JSym2E=1.
  NDBF=   552  NBFD=   552
 NRank=   552 NBFDU=   552
 S*AI*S=  6.48653880584    
 Initial guess read from the read-write file.
 B after Tr=     0.000000    0.000000    0.000000
         Rot=    1.000000    0.000000    0.000000    0.000000 Ang=   0.00 deg.
 Initial guess orbital symmetries:
       Occupied  (A) (A) (A) (A) (A) (A) (A) (A) (A) (A) (A) (A)
                 (A) (A) (A) (A) (A) (A) (A) (A) (A) (A) (A) (A)
       Virtual   (A) (A) (A) (A) (A) (A) (A) (A) (A) (A) (A) (A)
                 (A) (A) (A) (A) (A) (A) (A) (A) (A) (A) (A) (A)
                 (A) (A) (A) (A) (A) (A) (A) (A) (A) (A) (A) (A)
                 (A) (A) (A) (A) (A) (A) (A) (A) (A) (A) (A) (A)
                 (A) (A) (A) (A) (A) (A) (A) (A) (A) (A) (A) (A)
                 (A) (A) (A) (A) (A) (A) (A) (A) (A) (A) (A) (A)
                 (A) (A) (A) (A) (A) (A) (A) (A) (A) (A) (A) (A)
                 (A) (A) (A) (A) (A) (A) (A) (A) (A) (A) (A) (A)
 Harris functional with IExCor= 1009 diagonalized for initial guess.
 ExpMin= 1.61D-01 ExpMax= 5.48D+03 ExpMxC= 8.25D+02 IAcc=1 IRadAn=         1 AccDes= 0.00D+00
 HarFok:  IExCor= 1009 AccDes= 0.00D+00 IRadAn=         1 IDoV= 1
 ScaDFX=  1.000000  1.000000  1.000000  1.000000
 FoFCou: FMM=F IPFlag=           0 FMFlag=      100000 FMFlg1=           0
         NFxFlg=           0 DoJE=T BraDBF=F KetDBF=T FulRan=T
         Omega=  0.000000  0.000000  1.000000  0.000000  0.000000 ICntrl=     500 IOpCl=  0
         NMat0=    1 NMatS0=    1 NMatT0=    0 NMatD0=    1 NMtDS0=    0 NMtDT0=    0
         I1Cent=           4 NGrid=           0.
 Petite list used in FoFCou.
 Requested convergence on RMS density matrix=1.00D-08 within 128 cycles.
 Requested convergence on MAX density matrix=1.00D-06.
 Requested convergence on             energy=1.00D-06.
 No special actions if energy rises.
 FoFCou: FMM=F IPFlag=           0 FMFlag=      100000 FMFlg1=           0
         NFxFlg=           0 DoJE=T BraDBF=T KetDBF=F FulRan=T
         Omega=  0.000000  0.000000  1.000000  0.000000  0.000000 ICntrl=     500 IOpCl=  0
         NMat0=    1 NMatS0=    1 NMatT0=    0 NMatD0=    1 NMtDS0=    0 NMtDT0=    0
         I1Cent=           5 NGrid=           0.
 Symmetry not used in FoFCou.
 Error on total polarization charges =  0.00469
 SCF Done:  E(RPBE-PBE) =  -339.442994977     A.U. after   12 cycles
             Convg  =    0.9958D-08             -V/T =  2.0085
 D1PCM: PCM CHGder 1st derivatives, ID1Alg=3 FixD1E=F DoIter=F DoCFld=F I1PDM=0.
 Calling FoFJK, ICntrl=      2527 FMM=F ISym2X=0 I1Cent= 4 IOpClX= 0 NMat=1 NMatS=1 NMatT=0.
 ***** Axes restored to original set *****
 -------------------------------------------------------------------
 Center     Atomic                   Forces (Hartrees/Bohr)
 Number     Number              X              Y              Z
 -------------------------------------------------------------------
      1        6          -0.026154551   -0.010137333   -0.000020431
      2        7           0.021277438    0.007042456   -0.000026128
      3        8          -0.000368713   -0.010102939   -0.000006995
      4        1          -0.006853657    0.002828068    0.000034098
      5        1          -0.007844823    0.008290413    0.000001811
      6        1          -0.002458347    0.004137908    0.000017863
      7        6           0.026126194    0.010248259    0.000022546
      8        7          -0.021381550   -0.007193893   -0.000036274
      9        8           0.000359434    0.010100048   -0.000023051
     10        1           0.006872447   -0.002756041    0.000028444
     11        1           0.002470510   -0.004149568    0.000003431
     12        1           0.007955617   -0.008307377    0.000004686
 -------------------------------------------------------------------
 Cartesian Forces:  Max     0.026154551 RMS     0.009441181

 GradGradGradGradGradGradGradGradGradGradGradGradGradGradGradGradGradGrad
 Berny optimization.
 Using GEDIIS/GDIIS optimizer.
 Internal  Forces:  Max     0.023946836 RMS     0.007217475
 Search for a local minimum.
 Step number   4 out of a maximum of   56
 All quantities printed in internal units (Hartrees-Bohrs-Radians)
 Mixed Optimization -- RFO/linear search
 Update second derivatives using D2CorX and points    3    4
 DE= -7.18D-03 DEPred=-7.44D-03 R= 9.66D-01
 SS=  1.41D+00  RLast= 5.61D-01 DXNew= 8.4853D-01 1.6841D+00
 Trust test= 9.66D-01 RLast= 5.61D-01 DXMaxT set to 8.49D-01
 Use linear search instead of GDIIS.
     Eigenvalues ---    0.00230   0.00790   0.00805   0.01428   0.01580
     Eigenvalues ---    0.01964   0.02031   0.02439   0.02455   0.02467
     Eigenvalues ---    0.06084   0.06236   0.16000   0.16000   0.16043
     Eigenvalues ---    0.16242   0.17499   0.19089   0.19345   0.24565
[...]
    A4        2.10888   0.00000   0.00000  -0.00001  -0.00001   2.10887
    A5        2.08569   0.00000   0.00000  -0.00001  -0.00001   2.08568
    A6        2.08861   0.00000   0.00000   0.00003   0.00003   2.08864
    A7        2.04751   0.00000   0.00000  -0.00002  -0.00002   2.04749
    A8        2.19194   0.00000   0.00000   0.00001   0.00001   2.19195
    A9        1.98479   0.00000   0.00000   0.00001   0.00001   1.98480
   A10        2.10645   0.00000   0.00000  -0.00002  -0.00002   2.10643
   A11        2.10888   0.00000   0.00000  -0.00001  -0.00001   2.10887
   A12        2.08569   0.00000   0.00000  -0.00001  -0.00001   2.08568
   A13        2.08861   0.00000   0.00000   0.00003   0.00003   2.08864
   A14        2.04750   0.00000   0.00000  -0.00001  -0.00001   2.04749
   A15        3.07645   0.00000   0.00000   0.00002   0.00002   3.07647
   A16        3.07646   0.00000   0.00000   0.00001   0.00001   3.07647
   A17        3.14156   0.00000   0.00000   0.00003   0.00003   3.14159
   A18        3.14162   0.00000   0.00000  -0.00003  -0.00003   3.14159
    D1        0.00000   0.00000   0.00000   0.00000   0.00000   0.00000
    D2       -3.14157   0.00000   0.00000  -0.00003  -0.00003   3.14159
    D3        3.14157   0.00000   0.00000   0.00002   0.00002  -3.14159
    D4        0.00000   0.00000   0.00000   0.00000   0.00000   0.00000
    D5        0.00002   0.00000   0.00000  -0.00002  -0.00002   0.00000
    D6       -3.14155   0.00000   0.00000  -0.00005  -0.00005   3.14159
    D7       -0.00005   0.00000   0.00000   0.00005   0.00005   0.00000
    D8        3.14153   0.00000   0.00000   0.00007   0.00007  -3.14159
    D9       -0.00003   0.00000   0.00000   0.00003   0.00003   0.00000
   D10        3.14158   0.00000   0.00000   0.00001   0.00001   3.14159
   D11       -0.00002   0.00000   0.00000   0.00002   0.00002   0.00000
   D12        3.14156   0.00000   0.00000   0.00003   0.00003  -3.14159
   D13       -3.14157   0.00000   0.00000  -0.00003  -0.00003   3.14159
   D14        0.00002   0.00000   0.00000  -0.00002  -0.00002   0.00000
   D15        0.00005   0.00000   0.00000  -0.00004  -0.00004   0.00000
   D16        3.14159   0.00000   0.00000   0.00001   0.00001  -3.14159
         Item               Value     Threshold  Converged?
 Maximum Force            0.000007     0.000015     YES
 RMS     Force            0.000002     0.000010     YES
 Maximum Displacement     0.000054     0.000060     YES
 RMS     Displacement     0.000019     0.000040     YES
 Predicted change in Energy=-5.159506D-10
 Optimization completed.
    -- Stationary point found.
                           ----------------------------
                           !   Optimized Parameters   !
                           ! (Angstroms and Degrees)  !
 --------------------------                            --------------------------
 ! Name  Definition              Value          Derivative Info.                !
 --------------------------------------------------------------------------------
 ! R1    R(1,2)                  1.3436         -DE/DX =    0.0                 !
 ! R2    R(1,3)                  1.2492         -DE/DX =    0.0                 !
 ! R3    R(1,6)                  1.1128         -DE/DX =    0.0                 !
 ! R4    R(2,4)                  1.0412         -DE/DX =    0.0                 !
 ! R5    R(2,5)                  1.0165         -DE/DX =    0.0                 !
 ! R6    R(3,10)                 1.8285         -DE/DX =    0.0                 !
 ! R7    R(4,9)                  1.8285         -DE/DX =    0.0                 !
 ! R8    R(7,8)                  1.3436         -DE/DX =    0.0                 !
 ! R9    R(7,9)                  1.2492         -DE/DX =    0.0                 !
 ! R10   R(7,11)                 1.1128         -DE/DX =    0.0                 !
 ! R11   R(8,10)                 1.0412         -DE/DX =    0.0                 !
 ! R12   R(8,12)                 1.0165         -DE/DX =    0.0                 !
 ! A1    A(2,1,3)              125.5888         -DE/DX =    0.0                 !
 ! A2    A(2,1,6)              113.7203         -DE/DX =    0.0                 !
 ! A3    A(3,1,6)              120.6908         -DE/DX =    0.0                 !
 ! A4    A(1,2,4)              120.8299         -DE/DX =    0.0                 !
 ! A5    A(1,2,5)              119.5015         -DE/DX =    0.0                 !
 ! A6    A(4,2,5)              119.6686         -DE/DX =    0.0                 !
 ! A7    A(1,3,10)             117.3136         -DE/DX =    0.0                 !
 ! A8    A(8,7,9)              125.5888         -DE/DX =    0.0                 !
 ! A9    A(8,7,11)             113.7203         -DE/DX =    0.0                 !
 ! A10   A(9,7,11)             120.6908         -DE/DX =    0.0                 !
 ! A11   A(7,8,10)             120.83           -DE/DX =    0.0                 !
 ! A12   A(7,8,12)             119.5014         -DE/DX =    0.0                 !
 ! A13   A(10,8,12)            119.6685         -DE/DX =    0.0                 !
 ! A14   A(4,9,7)              117.3132         -DE/DX =    0.0                 !
 ! A15   L(2,4,9,7,-1)         176.2674         -DE/DX =    0.0                 !
 ! A16   L(3,10,8,1,-1)        176.2682         -DE/DX =    0.0                 !
 ! A17   L(2,4,9,7,-2)         179.998          -DE/DX =    0.0                 !
 ! A18   L(3,10,8,1,-2)        180.0018         -DE/DX =    0.0                 !
 ! D1    D(3,1,2,4)              0.0            -DE/DX =    0.0                 !
 ! D2    D(3,1,2,5)            180.0013         -DE/DX =    0.0                 !
 ! D3    D(6,1,2,4)           -180.0012         -DE/DX =    0.0                 !
 ! D4    D(6,1,2,5)              0.0            -DE/DX =    0.0                 !
 ! D5    D(2,1,3,10)             0.0012         -DE/DX =    0.0                 !
 ! D6    D(6,1,3,10)           180.0025         -DE/DX =    0.0                 !
 ! D7    D(1,2,9,7)             -0.0029         -DE/DX =    0.0                 !
 ! D8    D(5,2,9,7)           -180.0036         -DE/DX =    0.0                 !
 ! D9    D(1,3,8,7)             -0.0016         -DE/DX =    0.0                 !
 ! D10   D(1,3,8,12)           179.9993         -DE/DX =    0.0                 !
 ! D11   D(9,7,8,10)            -0.0014         -DE/DX =    0.0                 !
 ! D12   D(9,7,8,12)          -180.0017         -DE/DX =    0.0                 !
 ! D13   D(11,7,8,10)          180.0014         -DE/DX =    0.0                 !
 ! D14   D(11,7,8,12)            0.0011         -DE/DX =    0.0                 !
 ! D15   D(8,7,9,4)              0.0026         -DE/DX =    0.0                 !
 ! D16   D(11,7,9,4)          -180.0004         -DE/DX =    0.0                 !
 --------------------------------------------------------------------------------
 GradGradGradGradGradGradGradGradGradGradGradGradGradGradGradGradGradGrad

 1\1\GINC-CLODOMIRA\Freq\RPBEPBE\6-31G(d,p)\C2H6N2O2\DIEGOA\07-Nov-2019
 \0\\#N Geom=AllCheck Guess=TCheck SCRF=Check GenChk RPBEPBE/6-31G(d,p)
  Freq\\Title\\0,1\C,-2.0238536179,0.1261330809,-0.000067292\N,-1.29520
 59736,1.2550485662,-0.0000463131\O,-1.5645827976,-1.035549065,-0.00002
 34573\H,-0.2546954244,1.2185333097,0.0000103177\H,-1.7670657312,2.1553
 858682,-0.0000666605\H,-3.1225774731,0.3025034363,-0.0001071802\C,2.02
 39234826,-0.1261150127,0.0001757787\N,1.2952629425,-1.2550221804,0.000
 1721906\O,1.56466642,1.0355725283,0.0000858628\H,0.2547510808,-1.21849
 69245,0.0001111299\H,3.1226455793,-0.302498198,0.00021933\H,1.76711351
 25,-2.1553644091,0.0002242934\\Version=EM64L-G09RevA.01\State=1-A\HF=-
 339.4507888\RMSD=2.032e-09\RMSF=3.522e-06\ZeroPoint=0.0918166\Thermal=
 0.099588\Dipole=-0.0000439,0.0000031,0.0000615\DipoleDeriv=1.0331603,0
 .1634571,0.0000309,-0.0813667,2.0673523,-0.0000306,0.0000339,-0.000020
 7,0.2562635,-0.9190302,-0.5034376,-0.0000087,-0.1608453,-1.0338685,0.0
 00004,-0.0000144,-0.0000057,-0.6142128,-1.0037784,0.4144655,-0.000035,
 0.2198897,-1.4896145,0.0000242,-0.0000452,0.0000364,-0.4425943,1.03373
 57,-0.1866395,0.0000408,-0.1060535,0.1957813,-0.0000041,0.0000302,-0.0
 000076,0.3393809,0.1569557,0.029916,-0.0000103,0.0055695,0.2399022,0.0
 000004,-0.0000106,-0.000004,0.3678728,-0.3010585,0.0822417,-0.0000196,
 0.1228072,0.020451,0.0000066,-0.0000102,0.0000028,0.0932931,1.0331653,
 0.1634705,0.0000327,-0.0813481,2.067348,-0.000073,0.0000409,-0.0000721
 ,0.2562618,-0.9190613,-0.5034409,0.0000063,-0.1608525,-1.0338576,0.000
 0129,-0.0000119,-0.0000078,-0.6142139,-1.0037564,0.4144516,-0.0000438,
 0.2198772,-1.4896218,0.000047,-0.0000361,0.0000759,-0.4425958,1.033775
 6,-0.1866486,0.0000432,-0.1060593,0.1957809,-0.0000007,0.0000513,-0.00
 00045,0.3393805,-0.301061,0.0822451,-0.000024,0.1228101,0.0204482,0.00
 00088,-0.0000156,0.0000061,0.0932924,0.1569533,0.0299191,-0.0000126,0.
 0055716,0.2398985,0.0000044,-0.0000122,0.0000013,0.3678718\Polar=65.16
 92881,-4.9163746,71.7016221,0.0022746,-0.0016089,22.426244\PolarDeriv=
 8.7339315,-2.099119,-3.4836708,0.0003083,-0.0000521,-0.0785785,3.15693
 75,-6.8661552,4.8205984,0.0004141,-0.0005196,0.097362,0.0001552,-0.000
 0444,-0.0003035,0.0960671,-0.3482843,-0.0000929,-15.6664372,4.6927806,
 3.7015496,-0.0009785,-0.000008,0.1603511,-2.0771418,6.1279214,-1.33556
 75,-0.0001613,0.0002697,-0.3905918,-0.0009818,-0.0000052,0.0002068,0.9
 156462,5.0115903,-0.0001284,0.2676409,-4.7974333,1.1292947,0.0001679,0
 .0000221,0.4568992,-2.6562986,0.3424417,-11.9067626,-0.0002819,0.00017
 43,0.0031084,0.0002358,0.00003,0.0000502,-1.1746329,-5.202548,0.000045
 3,19.0297987,-0.4301028,0.3752452,0.0009974,0.0000233,0.1063651,-3.539
 177,0.1853006,1.1940214,-0.0001819,0.0000085,-0.0247278,0.0010981,-0.0
 00076,0.0000795,-0.135094,0.0976865,0.0000171,-2.0158517,2.471982,-3.5
 128558,-0.0000609,0.0000761,-0.0525994,2.1856163,-1.9758407,9.2920868,
 0.0001012,-0.0001222,0.1751013,-0.0000032,0.0000621,-0.0001717,-0.9405
 295,1.1377447,-0.0000897,-11.5439926,1.2106204,-1.297537,-0.00033,0.00
 00299,-0.8515416,0.2446229,-0.7193205,0.6088291,-0.0000492,-0.0000037,
 0.1598464,-0.0002011,0.0000044,0.0000056,-2.1083615,0.480404,-0.000187
 2,-8.7339229,2.0993444,3.483575,-0.0002369,-0.0000537,0.0785789,-3.156
 757,6.866075,-4.820757,-0.0004843,0.0006785,-0.0973555,0.0000922,-0.00
 01632,0.0007027,-0.0960628,0.3482647,0.0003551,15.6663915,-4.6929291,-
 3.7014806,0.0010644,0.0001357,-0.1603491,2.0768789,-6.127886,1.3357577
 ,0.0002447,-0.0004952,0.3905926,0.000868,0.0001925,-0.0006715,-0.91570
 71,-5.0115741,0.000179,-0.2674608,4.7974101,-1.1292209,-0.000349,0.000
 0022,-0.4568977,2.6562536,-0.342349,11.9068066,0.0002689,-0.0004048,-0
 .0031071,-0.0002952,0.0000522,-0.0002771,1.1746867,5.202567,-0.0005016
 ,-19.029818,0.4300955,-0.3752714,-0.0011011,0.0000568,-0.1063626,3.539
 3473,-0.1853072,-1.1939705,0.0002103,0.0000313,0.0247293,-0.0011905,0.
 0000291,0.0000031,0.1350952,-0.0976582,0.000039,11.5439453,-1.210703,1
 .29755,0.0003762,-0.0000502,0.8515375,-0.244677,0.719329,-0.6088673,0.
 0000647,0.0000165,-0.1598569,0.0001496,0.0000248,-0.0000486,2.1083666,
 -0.4804293,0.0001802,2.0157753,-2.4719457,3.5128221,0.0001422,-0.00018
 2,0.0525971,-2.1856051,1.9757908,-9.2921751,-0.0001453,0.0003667,-0.17
 51007,0.000073,-0.0001062,0.0004244,0.9405257,-1.1377634,0.0001841\Hyp
 erPolar=-0.0027758,0.0026572,-0.0009214,-0.0026928,0.0036832,-0.002699
 6,0.0040513,-0.0000536,-0.0000537,0.0006206\PG=C01 [X(C2H6N2O2)]\NImag
 =0\\0.70108311,-0.06906001,0.88234516,0.00002396,-0.00001383,0.1721750
 0,-0.24192212,-0.10912309,-0.00000763,0.75713791,-0.13963332,-0.296548
 37,-0.00000318,-0.02419251,0.80669753,-0.00000804,-0.00000313,-0.04106
 143,0.00003482,-0.00000496,0.02802913,-0.19093076,0.17838634,-0.000008
 92,0.03990333,-0.00983624,0.00000113,0.17740277,0.18754232,-0.51244119
 ,0.00001646,-0.00417219,-0.09002116,0.00000180,-0.20283500,0.61867888,
 -0.00000950,0.00001669,-0.06557035,0.00000115,0.00000103,0.01524090,0.
 00001060,-0.00001973,0.03318856,-0.01213838,-0.01728131,-0.00000036,-0
 .35194084,0.01719224,-0.00001820,-0.00232513,0.01082672,-0.00000006,0.
 34928979,-0.03085377,0.01055205,-0.00000171,0.00990509,-0.07502783,0.0
 0000075,0.00435806,0.00118249,0.00000020,-0.00370449,0.07196455,-0.000
 00023,-0.00000074,0.00040888,-0.00001898,0.00000112,-0.01552907,0.0000
 0021,0.00000022,-0.00495164,0.00001772,-0.00000059,0.02429845,0.014238
 63,-0.01813675,0.00000110,-0.15485556,0.16266395,-0.00000715,-0.001226
 46,-0.00483697,-0.00000036,0.00243465,0.02531160,0.00000050,0.14296776
 ,0.02010783,-0.02083341,0.00000094,0.15489792,-0.35477320,0.00000682,-
 0.00605880,-0.00079130,-0.00000024,-0.00283420,0.00554727,-0.00000015,
 -0.16440979,0.37024487,0.00000100,-0.00000040,-0.00987988,-0.00000686,
 0.00000634,-0.00113927,-0.00000037,0.,0.00958068,0.00000032,0.00000141
 ,-0.00479626,0.00000602,-0.00000727,0.00843365,-0.26639088,0.01465983,
 -0.00000767,-0.02439012,-0.00238370,-0.00000140,-0.01144552,0.02258541
 ,-0.00000150,0.00251204,-0.00305584,-0.00000003,-0.00012353,-0.0002761
 4,0.00000005,0.30006384,0.02592399,-0.05737627,0.00000088,-0.03256950,
 0.00357281,-0.00000141,0.04073558,-0.01564715,0.00000230,0.00021304,-0
 .00383135,0.00000020,-0.00003670,0.00075682,-0.00000003,-0.03149511,0.
 07194702,-0.00000718,0.00000034,-0.05606965,-0.00000117,-0.00000014,0.
 01092739,-0.00000193,0.00000158,0.01544772,-0.00000034,-0.00000003,0.0
 0697243,0.00000007,0.,-0.00221047,0.00001057,-0.00000176,0.02443003,-0
 .00130001,0.00075681,-0.00000009,-0.00280266,-0.00162718,0.,0.00018100
 ,0.00095399,0.00000003,-0.00031686,0.00570483,-0.00000026,0.00027668,0
 .00026452,0.00000003,0.00002255,-0.00008023,0.,0.70107972,0.00075668,0
 .01553493,-0.00000019,-0.01637789,-0.00277635,-0.00000077,0.01114655,-
 0.00965899,0.00000114,0.02736816,-0.00597798,0.00000124,-0.00227565,-0
 .00067157,-0.00000013,-0.00006269,-0.00214803,0.,-0.06905743,0.8823468
 5,-0.00000010,-0.00000063,0.00025425,0.00000065,0.00000007,-0.00011817
 ,-0.00000046,0.00000046,-0.00025285,-0.00000129,0.00000050,0.00007569,
 0.00000012,0.00000004,-0.00000954,0.,0.00000009,0.00004806,0.00002994,
 -0.00003601,0.17217503,-0.00280265,-0.01637858,0.00000008,0.00577547,0
 .00389594,0.00000015,-0.02067915,0.01289506,-0.00000208,-0.00552265,0.
 00188920,-0.00000027,0.00068494,0.00020440,0.00000006,-0.00139039,0.00
 274853,0.,-0.24192470,-0.10912327,-0.00000704,0.75713380,-0.00162723,-
 0.00277622,-0.00000003,0.00389569,0.00034762,0.00000020,0.00132103,0.0
 0637189,-0.00000003,-0.00829528,0.00129840,-0.00000032,0.00064294,0.00
 033334,0.00000003,0.00025262,0.00052554,-0.00000002,-0.13963429,-0.296
 54543,0.00000143,-0.02419124,0.80669680,-0.00000009,-0.00000095,-0.000
 11817,0.00000016,0.00000027,0.00075045,-0.00000168,0.00000072,0.004041
 94,0.,-0.00000001,-0.00048249,0.00000001,0.,-0.00002516,-0.00000009,0.
 00000017,-0.00063400,-0.00000643,0.00000240,-0.04106136,0.00004087,-0.
 00002679,0.02802928,0.00018100,0.01114597,-0.00000015,-0.02067742,0.00
 132096,-0.00000123,0.00303587,-0.00602699,0.00000027,0.01099927,-0.008
 33355,0.00000107,-0.00366086,-0.00138005,-0.00000021,-0.00125439,-0.00
 147619,0.,-0.19092623,0.17838266,-0.00001585,0.03990322,-0.00983786,0.
 00000177,0.17739610,0.00095402,-0.00965893,0.00000017,0.01289444,0.006
 37160,0.00000063,-0.00602723,0.00484764,-0.00000055,-0.01806574,-0.004
 11216,-0.00000075,0.00079110,0.00020808,0.00000005,0.00034295,0.001383
 17,0.,0.18753843,-0.51244573,0.00003344,-0.00417382,-0.09002084,0.0000
 0468,-0.20282977,0.61868399,0.00000006,0.00000096,-0.00025287,-0.00000
 167,-0.00000006,0.00404171,0.00000037,-0.00000052,0.00070075,0.0000015
 9,-0.00000035,-0.00714690,-0.00000024,-0.00000008,0.00018159,-0.000000
 06,-0.00000013,-0.00046015,-0.00001683,0.00003460,-0.06557037,0.000001
 46,0.00000371,0.01524085,0.00001826,-0.00004138,0.03318855,-0.00031722
 ,0.02736929,-0.00000038,-0.00552266,-0.00829576,-0.00000005,0.01099963
 ,-0.01806644,0.00000188,0.00450290,-0.00066083,0.00000027,-0.00051374,
 -0.00037388,-0.00000004,0.00301910,-0.00438450,0.,-0.01213858,-0.01728
 195,0.00000028,-0.35193487,0.01719513,-0.00001986,-0.00232509,0.010827
 06,-0.00000039,0.34928323,0.00570517,-0.00597818,0.00000044,0.00188923
 ,0.00129846,0.,-0.00833397,-0.00411232,-0.00000053,-0.00066089,-0.0018
 7528,-0.00000015,-0.00006162,-0.00010287,-0.00000001,-0.00049870,0.000
 38271,0.00000003,-0.03085334,0.01055250,-0.00000199,0.00990753,-0.0750
 2824,0.00000217,0.00435810,0.00118229,0.00000005,-0.00370723,0.0719652
 2,0.00000010,0.00000168,0.00007570,-0.00000033,-0.00000046,-0.00048252
 ,0.00000119,-0.00000095,-0.00714713,0.00000034,-0.00000019,-0.00016547
 ,-0.00000003,-0.00000005,-0.00011682,0.00000016,-0.00000031,0.00143324
 ,-0.00000005,-0.00000163,0.00040882,-0.00001939,0.00000291,-0.01552942
 ,0.00000006,0.00000032,-0.00495162,0.00001818,-0.00000138,0.02429901,0
 .00002255,-0.00006279,0.,-0.00139027,0.00025265,-0.00000006,-0.0012545
 0,0.00034301,-0.00000012,0.00301892,-0.00049868,0.00000003,-0.00025962
 ,-0.00013794,0.,-0.00036307,0.00006932,-0.00000001,-0.26638950,0.01466
 210,-0.00000812,-0.02439068,-0.00238343,-0.00000133,-0.01144487,0.0225
 8548,-0.00000222,0.00251214,-0.00305591,0.00000007,0.30006241,-0.00008
 022,-0.00214802,0.00000003,0.00274842,0.00052554,0.00000008,-0.0014762
 6,0.00138318,-0.00000017,-0.00438437,0.00038271,-0.00000006,0.00035177
 ,0.00010835,0.00000002,0.00006930,0.00032639,0.,0.02592628,-0.05737668
 ,0.00000090,-0.03256924,0.00357319,-0.00000137,0.04073553,-0.01564789,
 0.00000331,0.00021314,-0.00383129,0.00000045,-0.03149763,0.07194758,0.
 ,0.00000014,0.00004806,-0.00000020,-0.00000005,-0.00063397,0.00000007,
 -0.00000008,-0.00046017,0.00000034,0.00000002,0.00143318,-0.00000003,-
 0.00000001,-0.00001807,-0.00000003,-0.00000002,0.00013345,-0.00000710,
 0.00000021,-0.05606968,-0.00000082,-0.00000012,0.01092746,-0.00000366,
 0.00000298,0.01544778,-0.00000043,0.00000020,0.00697242,0.00001173,-0.
 00000318,0.02443000,0.00027672,-0.00227570,0.00000005,0.00068493,0.000
 64297,0.00000001,-0.00366108,0.00079107,-0.00000031,-0.00051371,-0.000
 06162,-0.00000003,0.00003712,-0.00000388,0.,-0.00025964,0.00035177,0.,
 0.01423858,-0.01813726,0.00000187,-0.15485235,0.16266191,-0.00001334,-
 0.00122660,-0.00483691,-0.00000034,0.00243517,0.02531163,-0.00000027,-
 0.00012352,-0.00003671,0.00000012,0.14296438,0.00026453,-0.00067155,0.
 00000002,0.00020439,0.00033334,0.,-0.00138005,0.00020805,-0.00000012,-
 0.00037387,-0.00010287,-0.00000003,-0.00000388,-0.00002635,0.,-0.00013
 794,0.00010834,0.,0.02010761,-0.02083353,0.00000169,0.15489549,-0.3547
 7605,0.00001870,-0.00605882,-0.00079122,-0.00000009,-0.00283404,0.0055
 4699,-0.00000039,-0.00027617,0.00075695,-0.00000007,-0.16440726,0.3702
 4792,0.00000002,-0.00000012,-0.00000954,0.00000006,0.00000003,-0.00002
 515,-0.00000020,0.00000005,0.00018160,-0.00000007,0.,-0.00011681,0.,0.
 ,-0.00000046,-0.00000001,0.00000002,-0.00001807,0.00000075,-0.00000086
 ,-0.00987988,-0.00001302,0.00001902,-0.00113939,-0.00000035,0.00000041
 ,0.00958068,0.00000055,0.00000117,-0.00479623,0.00000004,-0.00000001,-
 0.00221047,0.00001223,-0.00001970,0.00843372\\-0.00000836,-0.00000299,
 -0.00000275,0.00000285,0.00000104,0.00000021,0.00000282,0.00000085,0.0
 0000083,0.00000434,0.00000291,0.00000041,0.00000303,0.00000574,0.00000
 021,0.00000057,0.00000531,0.00000104,0.00000832,0.00000292,0.00000583,
 -0.00000293,-0.00000089,-0.00000137,-0.00000198,-0.00000092,-0.0000024
 3,-0.00000500,-0.00000287,0.00000031,-0.00000056,-0.00000530,-0.000001
 84,-0.00000308,-0.00000581,-0.00000045\\\@


 IF AT FIRST YOU DON'T SUCCEED, TRY, TRY AGAIN.
 THEN GIVE UP;
 THERE'S NO USE BEING A DAMN FOOL ABOUT IT.

                                 -- W. C. FIELDS
 Job cpu time:  0 days  0 hours  2 minutes 52.7 seconds.
 File lengths (MBytes):  RWF=     60 Int=      0 D2E=      0 Chk=      8 Scr=      1
 Normal termination of Gaussian 09 at Thu Nov  7 16:18:07 2019.
