Title                                                                   
Freq      RPBEPBE                                                     6-31G(d,p)          
Number of atoms                            I               12
Info1-9                                    I   N=           9
          20          20        1002           0           0         100
           6          18         902
Charge                                     I                0
Multiplicity                               I                1
Number of electrons                        I               48
Number of alpha electrons                  I               24
Number of beta electrons                   I               24
Number of basis functions                  I              120
Number of independent functions            I              120
Number of point charges in /Mol/           I                0
Number of translation vectors              I                0
Atomic numbers                             I   N=          12
           6           7           8           1           1           1
           6           7           8           1           1           1
Nuclear charges                            R   N=          12
  6.00000000E+00  7.00000000E+00  8.00000000E+00  1.00000000E+00  1.00000000E+00
  1.00000000E+00  6.00000000E+00  7.00000000E+00  8.00000000E+00  1.00000000E+00
  1.00000000E+00  1.00000000E+00
Current cartesian coordinates              R   N=          36
 -3.82673663E+00 -2.01028995E-01 -2.22537076E-04 -2.70304473E+00  2.07590686E+00
 -1.82892694E-04 -2.71325581E+00 -2.28251293E+00 -1.39701358E-04 -7.41790678E-01
  2.23243493E+00 -7.58759494E-05 -3.78362593E+00  3.66404374E+00 -2.21343723E-04
 -5.92752758E+00 -1.07598873E-01 -2.97914698E-04  3.82673905E+00  2.01020534E-01
  2.36800084E-04  2.70302114E+00 -2.07590249E+00  2.30019458E-04  2.71328289E+00
  2.28251758E+00  6.68835804E-05  7.41762465E-01 -2.23241208E+00  1.14631555E-04
  5.92752948E+00  1.07565947E-01  3.19100069E-04  3.78358617E+00 -3.66405061E+00
  3.28479570E-04
Force Field                                I                0
Int Atom Types                             I   N=          12
           0           0           0           0           0           0
           0           0           0           0           0           0
MM charges                                 R   N=          12
  0.00000000E+00  0.00000000E+00  0.00000000E+00  0.00000000E+00  0.00000000E+00
  0.00000000E+00  0.00000000E+00  0.00000000E+00  0.00000000E+00  0.00000000E+00
  0.00000000E+00  0.00000000E+00
Integer atomic weights                     I   N=          12
          12          14          16           1           1           1
          12          14          16           1           1           1
Real atomic weights                        R   N=          12
  1.20000000E+01  1.40030740E+01  1.59949146E+01  1.00782504E+00  1.00782504E+00
  1.00782504E+00  1.20000000E+01  1.40030740E+01  1.59949146E+01  1.00782504E+00
  1.00782504E+00  1.00782504E+00
Atom fragment info                         I   N=          12
           0           0           0           0           0           0
           0           0           0           0           0           0
Atom residue num                           I   N=          12
           0           0           0           0           0           0
           0           0           0           0           0           0
Nuclear spins                              I   N=          12
           0           2           0           1           1           1
           0           2           0           1           1           1
Nuclear ZEff                               R   N=          12
 -3.60000000E+00 -4.55000000E+00 -5.60000000E+00 -1.00000000E+00 -1.00000000E+00
 -1.00000000E+00 -3.60000000E+00 -4.55000000E+00 -5.60000000E+00 -1.00000000E+00
 -1.00000000E+00 -1.00000000E+00
Nuclear QMom                               R   N=          12
  0.00000000E+00  2.04400000E+00  0.00000000E+00  0.00000000E+00  0.00000000E+00
  0.00000000E+00  0.00000000E+00  2.04400000E+00  0.00000000E+00  0.00000000E+00
  0.00000000E+00  0.00000000E+00
Nuclear GFac                               R   N=          12
  0.00000000E+00  4.03761000E-01  0.00000000E+00  2.79284600E+00  2.79284600E+00
  2.79284600E+00  0.00000000E+00  4.03761000E-01  0.00000000E+00  2.79284600E+00
  2.79284600E+00  2.79284600E+00
MicOpt                                     I   N=          12
          -1          -1          -1          -1          -1          -1
          -1          -1          -1          -1          -1          -1
Number of contracted shells                I               42
Number of primitive shells                 I               96
Pure/Cartesian d shells                    I                1
Pure/Cartesian f shells                    I                0
Highest angular momentum                   I                2
Largest degree of contraction              I                6
Shell types                                I   N=          42
           0          -1          -1           2           0          -1
          -1           2           0          -1          -1           2
           0           0           1           0           0           1
           0           0           1           0          -1          -1
           2           0          -1          -1           2           0
          -1          -1           2           0           0           1
           0           0           1           0           0           1
Number of primitives per shell             I   N=          42
           6           3           1           1           6           3
           1           1           6           3           1           1
           3           1           1           3           1           1
           3           1           1           6           3           1
           1           6           3           1           1           6
           3           1           1           3           1           1
           3           1           1           3           1           1
Shell to atom map                          I   N=          42
           1           1           1           1           2           2
           2           2           3           3           3           3
           4           4           4           5           5           5
           6           6           6           7           7           7
           7           8           8           8           8           9
           9           9           9          10          10          10
          11          11          11          12          12          12
Primitive exponents                        R   N=          96
  3.04752488E+03  4.57369518E+02  1.03948685E+02  2.92101553E+01  9.28666296E+00
  3.16392696E+00  7.86827235E+00  1.88128854E+00  5.44249258E-01  1.68714478E-01
  8.00000000E-01  4.17351146E+03  6.27457911E+02  1.42902093E+02  4.02343293E+01
  1.28202129E+01  4.39043701E+00  1.16263619E+01  2.71627981E+00  7.72218397E-01
  2.12031498E-01  8.00000000E-01  5.48467166E+03  8.25234946E+02  1.88046958E+02
  5.29645000E+01  1.68975704E+01  5.79963534E+00  1.55396162E+01  3.59993359E+00
  1.01376175E+00  2.70005823E-01  8.00000000E-01  1.87311370E+01  2.82539436E+00
  6.40121692E-01  1.61277759E-01  1.10000000E+00  1.87311370E+01  2.82539436E+00
  6.40121692E-01  1.61277759E-01  1.10000000E+00  1.87311370E+01  2.82539436E+00
  6.40121692E-01  1.61277759E-01  1.10000000E+00  3.04752488E+03  4.57369518E+02
  1.03948685E+02  2.92101553E+01  9.28666296E+00  3.16392696E+00  7.86827235E+00
  1.88128854E+00  5.44249258E-01  1.68714478E-01  8.00000000E-01  4.17351146E+03
  6.27457911E+02  1.42902093E+02  4.02343293E+01  1.28202129E+01  4.39043701E+00
  1.16263619E+01  2.71627981E+00  7.72218397E-01  2.12031498E-01  8.00000000E-01
  5.48467166E+03  8.25234946E+02  1.88046958E+02  5.29645000E+01  1.68975704E+01
  5.79963534E+00  1.55396162E+01  3.59993359E+00  1.01376175E+00  2.70005823E-01
  8.00000000E-01  1.87311370E+01  2.82539436E+00  6.40121692E-01  1.61277759E-01
  1.10000000E+00  1.87311370E+01  2.82539436E+00  6.40121692E-01  1.61277759E-01
  1.10000000E+00  1.87311370E+01  2.82539436E+00  6.40121692E-01  1.61277759E-01
  1.10000000E+00
Contraction coefficients                   R   N=          96
  1.83473713E-03  1.40373228E-02  6.88426223E-02  2.32184443E-01  4.67941348E-01
  3.62311985E-01 -1.19332420E-01 -1.60854152E-01  1.14345644E+00  1.00000000E+00
  1.00000000E+00  1.83477216E-03  1.39946270E-02  6.85865518E-02  2.32240873E-01
  4.69069948E-01  3.60455199E-01 -1.14961182E-01 -1.69117479E-01  1.14585195E+00
  1.00000000E+00  1.00000000E+00  1.83107443E-03  1.39501722E-02  6.84450781E-02
  2.32714336E-01  4.70192898E-01  3.58520853E-01 -1.10777550E-01 -1.48026263E-01
  1.13076702E+00  1.00000000E+00  1.00000000E+00  3.34946043E-02  2.34726953E-01
  8.13757326E-01  1.00000000E+00  1.00000000E+00  3.34946043E-02  2.34726953E-01
  8.13757326E-01  1.00000000E+00  1.00000000E+00  3.34946043E-02  2.34726953E-01
  8.13757326E-01  1.00000000E+00  1.00000000E+00  1.83473713E-03  1.40373228E-02
  6.88426223E-02  2.32184443E-01  4.67941348E-01  3.62311985E-01 -1.19332420E-01
 -1.60854152E-01  1.14345644E+00  1.00000000E+00  1.00000000E+00  1.83477216E-03
  1.39946270E-02  6.85865518E-02  2.32240873E-01  4.69069948E-01  3.60455199E-01
 -1.14961182E-01 -1.69117479E-01  1.14585195E+00  1.00000000E+00  1.00000000E+00
  1.83107443E-03  1.39501722E-02  6.84450781E-02  2.32714336E-01  4.70192898E-01
  3.58520853E-01 -1.10777550E-01 -1.48026263E-01  1.13076702E+00  1.00000000E+00
  1.00000000E+00  3.34946043E-02  2.34726953E-01  8.13757326E-01  1.00000000E+00
  1.00000000E+00  3.34946043E-02  2.34726953E-01  8.13757326E-01  1.00000000E+00
  1.00000000E+00  3.34946043E-02  2.34726953E-01  8.13757326E-01  1.00000000E+00
  1.00000000E+00
P(S=P) Contraction coefficients            R   N=          96
  0.00000000E+00  0.00000000E+00  0.00000000E+00  0.00000000E+00  0.00000000E+00
  0.00000000E+00  6.89990666E-02  3.16423961E-01  7.44308291E-01  1.00000000E+00
  0.00000000E+00  0.00000000E+00  0.00000000E+00  0.00000000E+00  0.00000000E+00
  0.00000000E+00  0.00000000E+00  6.75797439E-02  3.23907296E-01  7.40895140E-01
  1.00000000E+00  0.00000000E+00  0.00000000E+00  0.00000000E+00  0.00000000E+00
  0.00000000E+00  0.00000000E+00  0.00000000E+00  7.08742682E-02  3.39752839E-01
  7.27158577E-01  1.00000000E+00  0.00000000E+00  0.00000000E+00  0.00000000E+00
  0.00000000E+00  0.00000000E+00  0.00000000E+00  0.00000000E+00  0.00000000E+00
  0.00000000E+00  0.00000000E+00  0.00000000E+00  0.00000000E+00  0.00000000E+00
  0.00000000E+00  0.00000000E+00  0.00000000E+00  0.00000000E+00  0.00000000E+00
  0.00000000E+00  0.00000000E+00  0.00000000E+00  0.00000000E+00  6.89990666E-02
  3.16423961E-01  7.44308291E-01  1.00000000E+00  0.00000000E+00  0.00000000E+00
  0.00000000E+00  0.00000000E+00  0.00000000E+00  0.00000000E+00  0.00000000E+00
  6.75797439E-02  3.23907296E-01  7.40895140E-01  1.00000000E+00  0.00000000E+00
  0.00000000E+00  0.00000000E+00  0.00000000E+00  0.00000000E+00  0.00000000E+00
  0.00000000E+00  7.08742682E-02  3.39752839E-01  7.27158577E-01  1.00000000E+00
  0.00000000E+00  0.00000000E+00  0.00000000E+00  0.00000000E+00  0.00000000E+00
  0.00000000E+00  0.00000000E+00  0.00000000E+00  0.00000000E+00  0.00000000E+00
  0.00000000E+00  0.00000000E+00  0.00000000E+00  0.00000000E+00  0.00000000E+00
  0.00000000E+00
Coordinates of each shell                  R   N=         126
 -3.82673663E+00 -2.01028995E-01 -2.22537076E-04 -3.82673663E+00 -2.01028995E-01
 -2.22537076E-04 -3.82673663E+00 -2.01028995E-01 -2.22537076E-04 -3.82673663E+00
 -2.01028995E-01 -2.22537076E-04 -2.70304473E+00  2.07590686E+00 -1.82892694E-04
 -2.70304473E+00  2.07590686E+00 -1.82892694E-04 -2.70304473E+00  2.07590686E+00
 -1.82892694E-04 -2.70304473E+00  2.07590686E+00 -1.82892694E-04 -2.71325581E+00
 -2.28251293E+00 -1.39701358E-04 -2.71325581E+00 -2.28251293E+00 -1.39701358E-04
 -2.71325581E+00 -2.28251293E+00 -1.39701358E-04 -2.71325581E+00 -2.28251293E+00
 -1.39701358E-04 -7.41790678E-01  2.23243493E+00 -7.58759494E-05 -7.41790678E-01
  2.23243493E+00 -7.58759494E-05 -7.41790678E-01  2.23243493E+00 -7.58759494E-05
 -3.78362593E+00  3.66404374E+00 -2.21343723E-04 -3.78362593E+00  3.66404374E+00
 -2.21343723E-04 -3.78362593E+00  3.66404374E+00 -2.21343723E-04 -5.92752758E+00
 -1.07598873E-01 -2.97914698E-04 -5.92752758E+00 -1.07598873E-01 -2.97914698E-04
 -5.92752758E+00 -1.07598873E-01 -2.97914698E-04  3.82673905E+00  2.01020534E-01
  2.36800084E-04  3.82673905E+00  2.01020534E-01  2.36800084E-04  3.82673905E+00
  2.01020534E-01  2.36800084E-04  3.82673905E+00  2.01020534E-01  2.36800084E-04
  2.70302114E+00 -2.07590249E+00  2.30019458E-04  2.70302114E+00 -2.07590249E+00
  2.30019458E-04  2.70302114E+00 -2.07590249E+00  2.30019458E-04  2.70302114E+00
 -2.07590249E+00  2.30019458E-04  2.71328289E+00  2.28251758E+00  6.68835804E-05
  2.71328289E+00  2.28251758E+00  6.68835804E-05  2.71328289E+00  2.28251758E+00
  6.68835804E-05  2.71328289E+00  2.28251758E+00  6.68835804E-05  7.41762465E-01
 -2.23241208E+00  1.14631555E-04  7.41762465E-01 -2.23241208E+00  1.14631555E-04
  7.41762465E-01 -2.23241208E+00  1.14631555E-04  5.92752948E+00  1.07565947E-01
  3.19100069E-04  5.92752948E+00  1.07565947E-01  3.19100069E-04  5.92752948E+00
  1.07565947E-01  3.19100069E-04  3.78358617E+00 -3.66405061E+00  3.28479570E-04
  3.78358617E+00 -3.66405061E+00  3.28479570E-04  3.78358617E+00 -3.66405061E+00
  3.28479570E-04
Density Number of contracted shells        I              144
Density Number of primitive shells         I              144
Density Pure/Cartesian d shells            I                0
Density Pure/Cartesian f shells            I                0
Density Highest angular momentum           I                3
Density Largest degree of contraction      I                1
Density Shell types                        I   N=         144
           0           0           0           0          -1          -2
          -1          -2          -1          -2          -1          -2
          -3          -1          -2          -3           0           0
           0           0          -1          -2          -1          -2
          -1          -2          -1          -2          -3          -1
          -2          -3           0           0           0           0
          -1          -2          -1          -2          -1          -2
          -1          -2          -3          -1          -2          -3
           0           0          -1          -2          -1          -2
          -1          -2           0           0          -1          -2
          -1          -2          -1          -2           0           0
          -1          -2          -1          -2          -1          -2
           0           0           0           0          -1          -2
          -1          -2          -1          -2          -1          -2
          -3          -1          -2          -3           0           0
           0           0          -1          -2          -1          -2
          -1          -2          -1          -2          -3          -1
          -2          -3           0           0           0           0
          -1          -2          -1          -2          -1          -2
          -1          -2          -3          -1          -2          -3
           0           0          -1          -2          -1          -2
          -1          -2           0           0          -1          -2
          -1          -2          -1          -2           0           0
          -1          -2          -1          -2          -1          -2
Density Number of primitives per shell     I   N=         144
           1           1           1           1           1           1
           1           1           1           1           1           1
           1           1           1           1           1           1
           1           1           1           1           1           1
           1           1           1           1           1           1
           1           1           1           1           1           1
           1           1           1           1           1           1
           1           1           1           1           1           1
           1           1           1           1           1           1
           1           1           1           1           1           1
           1           1           1           1           1           1
           1           1           1           1           1           1
           1           1           1           1           1           1
           1           1           1           1           1           1
           1           1           1           1           1           1
           1           1           1           1           1           1
           1           1           1           1           1           1
           1           1           1           1           1           1
           1           1           1           1           1           1
           1           1           1           1           1           1
           1           1           1           1           1           1
           1           1           1           1           1           1
           1           1           1           1           1           1
           1           1           1           1           1           1
Density Shell to atom map                  I   N=         144
           1           1           1           1           1           1
           1           1           1           1           1           1
           1           1           1           1           2           2
           2           2           2           2           2           2
           2           2           2           2           2           2
           2           2           3           3           3           3
           3           3           3           3           3           3
           3           3           3           3           3           3
           4           4           4           4           4           4
           4           4           5           5           5           5
           5           5           5           5           6           6
           6           6           6           6           6           6
           7           7           7           7           7           7
           7           7           7           7           7           7
           7           7           7           7           8           8
           8           8           8           8           8           8
           8           8           8           8           8           8
           8           8           9           9           9           9
           9           9           9           9           9           9
           9           9           9           9           9           9
          10          10          10          10          10          10
          10          10          11          11          11          11
          11          11          11          11          12          12
          12          12          12          12          12          12
Density Primitive exponents                R   N=         144
  6.09504976E+03  9.14739036E+02  2.07897370E+02  5.84203106E+01  1.70961976E+01
  1.70961976E+01  6.32785392E+00  6.32785392E+00  3.76257708E+00  3.76257708E+00
  1.31969604E+00  1.31969604E+00  1.31969604E+00  3.37428956E-01  3.37428956E-01
  3.37428956E-01  8.34702292E+03  1.25491582E+03  2.85804186E+02  8.04686586E+01
  2.44174064E+01  2.44174064E+01  8.78087402E+00  8.78087402E+00  5.43255961E+00
  5.43255961E+00  1.57197292E+00  1.57197292E+00  1.57197292E+00  4.24062995E-01
  4.24062995E-01  4.24062995E-01  1.09693433E+04  1.65046989E+03  3.76093916E+02
  1.05929000E+02  3.24087494E+01  3.24087494E+01  1.15992707E+01  1.15992707E+01
  7.19986717E+00  7.19986717E+00  1.80112121E+00  1.80112121E+00  1.80112121E+00
  5.40011645E-01  5.40011645E-01  5.40011645E-01  3.74622739E+01  5.65078873E+00
  2.20000000E+00  2.20000000E+00  1.28024338E+00  1.28024338E+00  3.22555518E-01
  3.22555518E-01  3.74622739E+01  5.65078873E+00  2.20000000E+00  2.20000000E+00
  1.28024338E+00  1.28024338E+00  3.22555518E-01  3.22555518E-01  3.74622739E+01
  5.65078873E+00  2.20000000E+00  2.20000000E+00  1.28024338E+00  1.28024338E+00
  3.22555518E-01  3.22555518E-01  6.09504976E+03  9.14739036E+02  2.07897370E+02
  5.84203106E+01  1.70961976E+01  1.70961976E+01  6.32785392E+00  6.32785392E+00
  3.76257708E+00  3.76257708E+00  1.31969604E+00  1.31969604E+00  1.31969604E+00
  3.37428956E-01  3.37428956E-01  3.37428956E-01  8.34702292E+03  1.25491582E+03
  2.85804186E+02  8.04686586E+01  2.44174064E+01  2.44174064E+01  8.78087402E+00
  8.78087402E+00  5.43255961E+00  5.43255961E+00  1.57197292E+00  1.57197292E+00
  1.57197292E+00  4.24062995E-01  4.24062995E-01  4.24062995E-01  1.09693433E+04
  1.65046989E+03  3.76093916E+02  1.05929000E+02  3.24087494E+01  3.24087494E+01
  1.15992707E+01  1.15992707E+01  7.19986717E+00  7.19986717E+00  1.80112121E+00
  1.80112121E+00  1.80112121E+00  5.40011645E-01  5.40011645E-01  5.40011645E-01
  3.74622739E+01  5.65078873E+00  2.20000000E+00  2.20000000E+00  1.28024338E+00
  1.28024338E+00  3.22555518E-01  3.22555518E-01  3.74622739E+01  5.65078873E+00
  2.20000000E+00  2.20000000E+00  1.28024338E+00  1.28024338E+00  3.22555518E-01
  3.22555518E-01  3.74622739E+01  5.65078873E+00  2.20000000E+00  2.20000000E+00
  1.28024338E+00  1.28024338E+00  3.22555518E-01  3.22555518E-01
Density Contraction coefficients           R   N=         144
  1.00000000E+00  1.00000000E+00  1.00000000E+00  1.00000000E+00  1.00000000E+00
  1.00000000E+00  1.00000000E+00  1.00000000E+00  1.00000000E+00  1.00000000E+00
  1.00000000E+00  1.00000000E+00  1.00000000E+00  1.00000000E+00  1.00000000E+00
  1.00000000E+00  1.00000000E+00  1.00000000E+00  1.00000000E+00  1.00000000E+00
  1.00000000E+00  1.00000000E+00  1.00000000E+00  1.00000000E+00  1.00000000E+00
  1.00000000E+00  1.00000000E+00  1.00000000E+00  1.00000000E+00  1.00000000E+00
  1.00000000E+00  1.00000000E+00  1.00000000E+00  1.00000000E+00  1.00000000E+00
  1.00000000E+00  1.00000000E+00  1.00000000E+00  1.00000000E+00  1.00000000E+00
  1.00000000E+00  1.00000000E+00  1.00000000E+00  1.00000000E+00  1.00000000E+00
  1.00000000E+00  1.00000000E+00  1.00000000E+00  1.00000000E+00  1.00000000E+00
  1.00000000E+00  1.00000000E+00  1.00000000E+00  1.00000000E+00  1.00000000E+00
  1.00000000E+00  1.00000000E+00  1.00000000E+00  1.00000000E+00  1.00000000E+00
  1.00000000E+00  1.00000000E+00  1.00000000E+00  1.00000000E+00  1.00000000E+00
  1.00000000E+00  1.00000000E+00  1.00000000E+00  1.00000000E+00  1.00000000E+00
  1.00000000E+00  1.00000000E+00  1.00000000E+00  1.00000000E+00  1.00000000E+00
  1.00000000E+00  1.00000000E+00  1.00000000E+00  1.00000000E+00  1.00000000E+00
  1.00000000E+00  1.00000000E+00  1.00000000E+00  1.00000000E+00  1.00000000E+00
  1.00000000E+00  1.00000000E+00  1.00000000E+00  1.00000000E+00  1.00000000E+00
  1.00000000E+00  1.00000000E+00  1.00000000E+00  1.00000000E+00  1.00000000E+00
  1.00000000E+00  1.00000000E+00  1.00000000E+00  1.00000000E+00  1.00000000E+00
  1.00000000E+00  1.00000000E+00  1.00000000E+00  1.00000000E+00  1.00000000E+00
  1.00000000E+00  1.00000000E+00  1.00000000E+00  1.00000000E+00  1.00000000E+00
  1.00000000E+00  1.00000000E+00  1.00000000E+00  1.00000000E+00  1.00000000E+00
  1.00000000E+00  1.00000000E+00  1.00000000E+00  1.00000000E+00  1.00000000E+00
  1.00000000E+00  1.00000000E+00  1.00000000E+00  1.00000000E+00  1.00000000E+00
  1.00000000E+00  1.00000000E+00  1.00000000E+00  1.00000000E+00  1.00000000E+00
  1.00000000E+00  1.00000000E+00  1.00000000E+00  1.00000000E+00  1.00000000E+00
  1.00000000E+00  1.00000000E+00  1.00000000E+00  1.00000000E+00  1.00000000E+00
  1.00000000E+00  1.00000000E+00  1.00000000E+00  1.00000000E+00
Density P(S=P) Contraction coefficients    R   N=         144
  0.00000000E+00  0.00000000E+00  0.00000000E+00  0.00000000E+00  1.00000000E+00
  0.00000000E+00  1.00000000E+00  0.00000000E+00  1.00000000E+00  0.00000000E+00
  1.00000000E+00  0.00000000E+00  0.00000000E+00  1.00000000E+00  0.00000000E+00
  0.00000000E+00  0.00000000E+00  0.00000000E+00  0.00000000E+00  0.00000000E+00
  1.00000000E+00  0.00000000E+00  1.00000000E+00  0.00000000E+00  1.00000000E+00
  0.00000000E+00  1.00000000E+00  0.00000000E+00  0.00000000E+00  1.00000000E+00
  0.00000000E+00  0.00000000E+00  0.00000000E+00  0.00000000E+00  0.00000000E+00
  0.00000000E+00  1.00000000E+00  0.00000000E+00  1.00000000E+00  0.00000000E+00
  1.00000000E+00  0.00000000E+00  1.00000000E+00  0.00000000E+00  0.00000000E+00
  1.00000000E+00  0.00000000E+00  0.00000000E+00  0.00000000E+00  0.00000000E+00
  1.00000000E+00  0.00000000E+00  1.00000000E+00  0.00000000E+00  1.00000000E+00
  0.00000000E+00  0.00000000E+00  0.00000000E+00  1.00000000E+00  0.00000000E+00
  1.00000000E+00  0.00000000E+00  1.00000000E+00  0.00000000E+00  0.00000000E+00
  0.00000000E+00  1.00000000E+00  0.00000000E+00  1.00000000E+00  0.00000000E+00
  1.00000000E+00  0.00000000E+00  0.00000000E+00  0.00000000E+00  0.00000000E+00
  0.00000000E+00  1.00000000E+00  0.00000000E+00  1.00000000E+00  0.00000000E+00
  1.00000000E+00  0.00000000E+00  1.00000000E+00  0.00000000E+00  0.00000000E+00
  1.00000000E+00  0.00000000E+00  0.00000000E+00  0.00000000E+00  0.00000000E+00
  0.00000000E+00  0.00000000E+00  1.00000000E+00  0.00000000E+00  1.00000000E+00
  0.00000000E+00  1.00000000E+00  0.00000000E+00  1.00000000E+00  0.00000000E+00
  0.00000000E+00  1.00000000E+00  0.00000000E+00  0.00000000E+00  0.00000000E+00
  0.00000000E+00  0.00000000E+00  0.00000000E+00  1.00000000E+00  0.00000000E+00
  1.00000000E+00  0.00000000E+00  1.00000000E+00  0.00000000E+00  1.00000000E+00
  0.00000000E+00  0.00000000E+00  1.00000000E+00  0.00000000E+00  0.00000000E+00
  0.00000000E+00  0.00000000E+00  1.00000000E+00  0.00000000E+00  1.00000000E+00
  0.00000000E+00  1.00000000E+00  0.00000000E+00  0.00000000E+00  0.00000000E+00
  1.00000000E+00  0.00000000E+00  1.00000000E+00  0.00000000E+00  1.00000000E+00
  0.00000000E+00  0.00000000E+00  0.00000000E+00  1.00000000E+00  0.00000000E+00
  1.00000000E+00  0.00000000E+00  1.00000000E+00  0.00000000E+00
Density Coordinates of each shell          R   N=         432
 -3.82673663E+00 -2.01028995E-01 -2.22537076E-04 -3.82673663E+00 -2.01028995E-01
 -2.22537076E-04 -3.82673663E+00 -2.01028995E-01 -2.22537076E-04 -3.82673663E+00
 -2.01028995E-01 -2.22537076E-04 -3.82673663E+00 -2.01028995E-01 -2.22537076E-04
 -3.82673663E+00 -2.01028995E-01 -2.22537076E-04 -3.82673663E+00 -2.01028995E-01
 -2.22537076E-04 -3.82673663E+00 -2.01028995E-01 -2.22537076E-04 -3.82673663E+00
 -2.01028995E-01 -2.22537076E-04 -3.82673663E+00 -2.01028995E-01 -2.22537076E-04
 -3.82673663E+00 -2.01028995E-01 -2.22537076E-04 -3.82673663E+00 -2.01028995E-01
 -2.22537076E-04 -3.82673663E+00 -2.01028995E-01 -2.22537076E-04 -3.82673663E+00
 -2.01028995E-01 -2.22537076E-04 -3.82673663E+00 -2.01028995E-01 -2.22537076E-04
 -3.82673663E+00 -2.01028995E-01 -2.22537076E-04 -2.70304473E+00  2.07590686E+00
 -1.82892694E-04 -2.70304473E+00  2.07590686E+00 -1.82892694E-04 -2.70304473E+00
  2.07590686E+00 -1.82892694E-04 -2.70304473E+00  2.07590686E+00 -1.82892694E-04
 -2.70304473E+00  2.07590686E+00 -1.82892694E-04 -2.70304473E+00  2.07590686E+00
 -1.82892694E-04 -2.70304473E+00  2.07590686E+00 -1.82892694E-04 -2.70304473E+00
  2.07590686E+00 -1.82892694E-04 -2.70304473E+00  2.07590686E+00 -1.82892694E-04
 -2.70304473E+00  2.07590686E+00 -1.82892694E-04 -2.70304473E+00  2.07590686E+00
 -1.82892694E-04 -2.70304473E+00  2.07590686E+00 -1.82892694E-04 -2.70304473E+00
  2.07590686E+00 -1.82892694E-04 -2.70304473E+00  2.07590686E+00 -1.82892694E-04
 -2.70304473E+00  2.07590686E+00 -1.82892694E-04 -2.70304473E+00  2.07590686E+00
 -1.82892694E-04 -2.71325581E+00 -2.28251293E+00 -1.39701358E-04 -2.71325581E+00
 -2.28251293E+00 -1.39701358E-04 -2.71325581E+00 -2.28251293E+00 -1.39701358E-04
 -2.71325581E+00 -2.28251293E+00 -1.39701358E-04 -2.71325581E+00 -2.28251293E+00
 -1.39701358E-04 -2.71325581E+00 -2.28251293E+00 -1.39701358E-04 -2.71325581E+00
 -2.28251293E+00 -1.39701358E-04 -2.71325581E+00 -2.28251293E+00 -1.39701358E-04
 -2.71325581E+00 -2.28251293E+00 -1.39701358E-04 -2.71325581E+00 -2.28251293E+00
 -1.39701358E-04 -2.71325581E+00 -2.28251293E+00 -1.39701358E-04 -2.71325581E+00
 -2.28251293E+00 -1.39701358E-04 -2.71325581E+00 -2.28251293E+00 -1.39701358E-04
 -2.71325581E+00 -2.28251293E+00 -1.39701358E-04 -2.71325581E+00 -2.28251293E+00
 -1.39701358E-04 -2.71325581E+00 -2.28251293E+00 -1.39701358E-04 -7.41790678E-01
  2.23243493E+00 -7.58759494E-05 -7.41790678E-01  2.23243493E+00 -7.58759494E-05
 -7.41790678E-01  2.23243493E+00 -7.58759494E-05 -7.41790678E-01  2.23243493E+00
 -7.58759494E-05 -7.41790678E-01  2.23243493E+00 -7.58759494E-05 -7.41790678E-01
  2.23243493E+00 -7.58759494E-05 -7.41790678E-01  2.23243493E+00 -7.58759494E-05
 -7.41790678E-01  2.23243493E+00 -7.58759494E-05 -3.78362593E+00  3.66404374E+00
 -2.21343723E-04 -3.78362593E+00  3.66404374E+00 -2.21343723E-04 -3.78362593E+00
  3.66404374E+00 -2.21343723E-04 -3.78362593E+00  3.66404374E+00 -2.21343723E-04
 -3.78362593E+00  3.66404374E+00 -2.21343723E-04 -3.78362593E+00  3.66404374E+00
 -2.21343723E-04 -3.78362593E+00  3.66404374E+00 -2.21343723E-04 -3.78362593E+00
  3.66404374E+00 -2.21343723E-04 -5.92752758E+00 -1.07598873E-01 -2.97914698E-04