 Entering Gaussian System, Link 0=g09
 Input=td1.com
 Output=td1.log
 Initial command:
 /home/diegoa/progs/g09/l1.exe /home/diegoa/g09scratch/Gau-7774.inp -scrdir=/home/diegoa/g09scratch/
 Default is to use a total of   4 processors:
                                4 via shared-memory
                                1 via Linda
 Entering Link 1 = /home/diegoa/progs/g09/l1.exe PID=      7776.
  
 Copyright (c) 1988,1990,1992,1993,1995,1998,2003,2009, Gaussian, Inc.
                  All Rights Reserved.
  
 This is part of the Gaussian(R) 09 program.  It is based on
 the Gaussian(R) 03 system (copyright 2003, Gaussian, Inc.),
 the Gaussian(R) 98 system (copyright 1998, Gaussian, Inc.),
 the Gaussian(R) 94 system (copyright 1995, Gaussian, Inc.),
 the Gaussian 92(TM) system (copyright 1992, Gaussian, Inc.),
 the Gaussian 90(TM) system (copyright 1990, Gaussian, Inc.),
 the Gaussian 88(TM) system (copyright 1988, Gaussian, Inc.),
 the Gaussian 86(TM) system (copyright 1986, Carnegie Mellon
 University), and the Gaussian 82(TM) system (copyright 1983,
 Carnegie Mellon University). Gaussian is a federally registered
 trademark of Gaussian, Inc.
  
 This software contains proprietary and confidential information,
 including trade secrets, belonging to Gaussian, Inc.
  
 This software is provided under written license and may be
 used, copied, transmitted, or stored only in accord with that
 written license.
  
 The following legend is applicable only to US Government
 contracts under FAR:
  
                    RESTRICTED RIGHTS LEGEND
  
 Use, reproduction and disclosure by the US Government is
 subject to restrictions as set forth in subparagraphs (a)
 and (c) of the Commercial Computer Software - Restricted
 Rights clause in FAR 52.227-19.
  
 Gaussian, Inc.
 340 Quinnipiac St., Bldg. 40, Wallingford CT 06492
  
  
 ---------------------------------------------------------------
 Warning -- This program may not be used in any manner that
 competes with the business of Gaussian, Inc. or will provide
 assistance to any competitor of Gaussian, Inc.  The licensee
 of this program is prohibited from giving any competitor of
 Gaussian, Inc. access to this program.  By using this program,
 the user acknowledges that Gaussian, Inc. is engaged in the
 business of creating and licensing software in the field of
 computational chemistry and represents and warrants to the
 licensee that it is not a competitor of Gaussian, Inc. and that
 it will not use this program in any manner prohibited above.
 ---------------------------------------------------------------
  

 Cite this work as:
 Gaussian 09, Revision A.01,
 M. J. Frisch, G. W. Trucks, H. B. Schlegel, G. E. Scuseria, 
 M. A. Robb, J. R. Cheeseman, G. Scalmani, V. Barone, B. Mennucci, 
 G. A. Petersson, H. Nakatsuji, M. Caricato, X. Li, H. P. Hratchian, 
 A. F. Izmaylov, J. Bloino, G. Zheng, J. L. Sonnenberg, M. Hada, 
 M. Ehara, K. Toyota, R. Fukuda, J. Hasegawa, M. Ishida, T. Nakajima, 
 Y. Honda, O. Kitao, H. Nakai, T. Vreven, J. A. Montgomery, Jr., 
 J. E. Peralta, F. Ogliaro, M. Bearpark, J. J. Heyd, E. Brothers, 
 K. N. Kudin, V. N. Staroverov, R. Kobayashi, J. Normand, 
 K. Raghavachari, A. Rendell, J. C. Burant, S. S. Iyengar, J. Tomasi, 
 M. Cossi, N. Rega, J. M. Millam, M. Klene, J. E. Knox, J. B. Cross, 
 V. Bakken, C. Adamo, J. Jaramillo, R. Gomperts, R. E. Stratmann, 
 O. Yazyev, A. J. Austin, R. Cammi, C. Pomelli, J. W. Ochterski, 
 R. L. Martin, K. Morokuma, V. G. Zakrzewski, G. A. Voth, 
 P. Salvador, J. J. Dannenberg, S. Dapprich, A. D. Daniels, 
 O. Farkas, J. B. Foresman, J. V. Ortiz, J. Cioslowski, 
 and D. J. Fox, Gaussian, Inc., Wallingford CT, 2009.
 
 ******************************************
 Gaussian 09:  EM64L-G09RevA.01  8-May-2009
                 7-Nov-2019 
 ******************************************
 %chk=td1.chk
 %NProcShared=4
 Will use up to    4 processors via shared memory.
 Default route:  MP2=Direct MaxDisk=1000GB DenFit
 ----------------------------------------------------------------------
 # pbepbe/6-31G** force nosymm td(root=1,nstates=20,nonEqSolv) SCRF=PCM
  guess=read
 ----------------------------------------------------------------------
 1/10=7,30=1,38=1/1,3;
 2/12=2,15=1,17=6,18=5,40=1/2;
 3/5=1,6=6,7=101,11=2,16=1,25=1,30=1,70=2201,71=1,72=1,74=1009,82=47,116=-2/1,2,8,3;
 4/5=1/1;
 5/5=2,38=6/2;
 8/6=1,10=2,107=1,108=20/1;
 9/8=1,15=2,41=20,42=1,73=1/14;
 10/5=4,31=1/2;
 6/7=2,8=2,9=2,10=2,18=1,85=1/1;
 7/12=6,13=5,14=1,29=1,30=1/1,2,3,16;
 1/10=7,30=1/3;
 99//99;
 -----
 Title
 -----
 Symbolic Z-matrix:
 Charge =  0 Multiplicity = 1
 6                    -2.02502  -0.10638  -0.00012 
 7                    -1.43039   1.09852  -0.0001 
 8                    -1.43579  -1.20785  -0.00007 
 1                    -0.39254   1.18135  -0.00004 
 1                    -2.00221   1.93893  -0.00012 
 1                    -3.13671  -0.05694  -0.00016 
 6                     2.02502   0.10638   0.00013 
 7                     1.43038  -1.09852   0.00012 
 8                     1.43581   1.20786   0.00004 
 1                     0.39252  -1.18134   0.00006 
 1                     3.13671   0.05692   0.00017 
 1                     2.00219  -1.93893   0.00017 
 

 GradGradGradGradGradGradGradGradGradGradGradGradGradGradGradGradGradGrad
 Berny optimization.
 Initialization pass.
 Trust Radius=3.00D-01 FncErr=1.00D-07 GrdErr=1.00D-07
 Number of steps in this run=   2 maximum allowed number of steps=   2.
 GradGradGradGradGradGradGradGradGradGradGradGradGradGradGradGradGradGrad

                          Input orientation:                          
 ---------------------------------------------------------------------
 Center     Atomic      Atomic             Coordinates (Angstroms)
 Number     Number       Type             X           Y           Z
 ---------------------------------------------------------------------
      1          6           0       -2.025022   -0.106380   -0.000118
      2          7           0       -1.430390    1.098523   -0.000097
      3          8           0       -1.435793   -1.207854   -0.000074
      4          1           0       -0.392539    1.181354   -0.000040
      5          1           0       -2.002209    1.938928   -0.000117
      6          1           0       -3.136712   -0.056939   -0.000158
      7          6           0        2.025023    0.106375    0.000125
      8          7           0        1.430377   -1.098520    0.000122
      9          8           0        1.435807    1.207856    0.000035
     10          1           0        0.392524   -1.181342    0.000061
     11          1           0        3.136714    0.056921    0.000169
     12          1           0        2.002188   -1.938932    0.000174
 ---------------------------------------------------------------------
                    Distance matrix (angstroms):
                    1          2          3          4          5
     1  C    0.000000
     2  N    1.343644   0.000000
     3  O    1.249174   2.306383   0.000000
     4  H    2.079245   1.041151   2.607047   0.000000
     5  H    2.045435   1.016493   3.197353   1.779032   0.000000
     6  H    1.112789   2.060735   2.053711   3.010624   2.295775
     7  C    4.055629   3.595029   3.701952   2.645786   4.424573
     8  N    3.595014   3.607074   2.868255   2.919049   4.583529
     9  O    3.701966   2.868282   3.752565   1.828538   3.514886
    10  H    2.645765   2.919041   1.828509   2.489710   3.933298
    11  H    5.164319   4.684375   4.744204   3.704049   5.472703
    12  H    4.424553   4.583528   3.514853   3.933307   5.574316
                    6          7          8          9         10
     6  H    0.000000
     7  C    5.164318   0.000000
     8  N    4.684356   1.343643   0.000000
     9  O    4.744221   1.249174   2.306382   0.000000
    10  H    3.704023   2.079247   1.041152   2.607049   0.000000
    11  H    6.274459   1.112790   2.060735   2.053713   3.010627
    12  H    5.472677   2.045434   1.016494   3.197352   1.779034
                   11         12
    11  H    0.000000
    12  H    2.295774   0.000000
 Symmetry turned off by external request.
 Stoichiometry    C2H6N2O2
 Framework group  C1[X(C2H6N2O2)]
 Deg. of freedom    30
 Full point group                 C1      NOp   1
 Rotational constants (GHZ):      5.5714370      2.0189722      1.4819460
 Standard basis: 6-31G(d,p) (6D, 7F)
 Integral buffers will be    131072 words long.
 Raffenetti 2 integral format.
 Two-electron integral symmetry is turned off.
   120 basis functions,   210 primitive gaussians,   120 cartesian basis functions
    24 alpha electrons       24 beta electrons
       nuclear repulsion energy       229.1635830390 Hartrees.
 NAtoms=   12 NActive=   12 NUniq=   12 SFac= 7.50D-01 NAtFMM=   80 NAOKFM=F Big=F
 Standard density basis: Auto (5D, 7F)
   552 Density fitting functions
 ------------------------------------------------------------------------------
 Polarizable Continuum Model (PCM)
 =================================
 Model                : PCM.
 Atomic radii         : UFF (Universal Force Field).
 Polarization charges : Total charges.
 Charge compensation  : None.
 Solution method      : Matrix inversion.
 Cavity type          : Scaled VdW (van der Waals Surface) (Alpha=1.100).
 Cavity algorithm     : GePol (No added spheres)
                        Default sphere list used, NSphG=   12.
                        Lebedev-Laikov grids with approx.  5.0 points / Ang**2.
                        Smoothing algorithm: Karplus/York (Gamma=1.0000).
                        Polarization charges: spherical gaussians, with
                                              point-specific exponents (IZeta= 3).
                        Self-potential: point-specific (ISelfS= 7).
                        Self-field    : sphere-specific E.n sum rule (ISelfD= 2).
 1st derivatives      : Analytical E(r).r(x)/FMM algorithm (CHGder, D1EAlg=3).
                        Cavity 1st derivative terms included.
 Solvent              : Water, Eps=  78.355300 Eps(inf)=   1.777849
 ------------------------------------------------------------------------------
 Spheres list:
 ISph  on   Nord    Re0     Alpha      Xe            Ye            Ze
    1   C      1    1.926   1.100     -2.025022     -0.106380     -0.000118
    2   N      2    1.830   1.100     -1.430390      1.098523     -0.000097
    3   O      3    1.750   1.100     -1.435793     -1.207854     -0.000074
    4   H      4    1.443   1.100     -0.392539      1.181354     -0.000040
    5   H      5    1.443   1.100     -2.002209      1.938928     -0.000117
    6   H      6    1.443   1.100     -3.136712     -0.056939     -0.000158
    7   C      7    1.926   1.100      2.025023      0.106375      0.000125
    8   N      8    1.830   1.100      1.430377     -1.098520      0.000122
    9   O      9    1.750   1.100      1.435807      1.207856      0.000035
   10   H     10    1.443   1.100      0.392524     -1.181342      0.000061
   11   H     11    1.443   1.100      3.136714      0.056921      0.000169
   12   H     12    1.443   1.100      2.002188     -1.938932      0.000174
 ------------------------------------------------------------------------------
 One-electron integrals computed using PRISM.
 NBasis=   120 RedAO= T  NBF=   120
 NBsUse=   120 1.00D-06 NBFU=   120
 NBasis=      120 NBas6D=      120 NTT=        7260   NTT6D=     7260
 NDBShl=       96 NDBF=        552 NDBF6D=      636  NNucDB=        0
 IDenFi=        2 ISolve=        0 FullAP=F BlkAPC=T NucTyp=        0
 TolInv= 1.00D-05 TolIt=  1.00D-10 IR12=0.
 Symmetry not used in FoFDir.
 MinBra= 0 MaxBra= 3 Meth= 1.
 IRaf=       0 NMat=   1 IRICut=       1 DoRegI=T DoRafI=F ISym2E= 0 JSym2E=0.
  NDBF=   552  NBFD=   552
 NRank=   552 NBFDU=   552
 S*AI*S=  6.55056350233    
 Initial guess read from the checkpoint file:  td1.chk
 B after Tr=     0.000000    0.000000    0.000000
         Rot=    1.000000    0.000000    0.000000    0.000000 Ang=   0.00 deg.
 Recovered     1 saved fitting vectors from chk file.
 Requested convergence on RMS density matrix=1.00D-08 within 128 cycles.
 Requested convergence on MAX density matrix=1.00D-06.
 Requested convergence on             energy=1.00D-06.
 No special actions if energy rises.
 FoFCou: FMM=F IPFlag=           0 FMFlag=      100000 FMFlg1=           0
         NFxFlg=           0 DoJE=T BraDBF=T KetDBF=F FulRan=T
         Omega=  0.000000  0.000000  1.000000  0.000000  0.000000 ICntrl=     500 IOpCl=  0
         NMat0=    1 NMatS0=    1 NMatT0=    0 NMatD0=    1 NMtDS0=    0 NMtDT0=    0
         I1Cent=           5 NGrid=           0.
 Symmetry not used in FoFCou.
 Error on total polarization charges =  0.00473
 SCF Done:  E(RPBE-PBE) =  -339.450788754     A.U. after    1 cycles
             Convg  =    0.2776D-08             -V/T =  2.0095
 ExpMin= 1.61D-01 ExpMax= 5.48D+03 ExpMxC= 8.25D+02 IAcc=1 IRadAn=         1 AccDes= 0.00D+00
 HarFok:  IExCor=  205 AccDes= 0.00D+00 IRadAn=         1 IDoV=-2
 ScaDFX=  1.000000  1.000000  1.000000  1.000000
 Range of M.O.s used for correlation:     7   120
 NBasis=   120 NAE=    24 NBE=    24 NFC=     6 NFV=     0
 NROrb=    114 NOA=    18 NOB=    18 NVA=    96 NVB=    96
 NEqPCM:  Using non-equilibrium solvation (IEInf=1, Eps=  78.3553, EpsInf=   1.7778)
    80 initial guesses have been made.
 Convergence on wavefunction:    0.000001000000000
 Iteration     1 Dimension    80 NMult    80
 CISAX will form    80 AO SS matrices at one time.
 New state      3 was old state      4
 New state      4 was old state      3
 New state      5 was old state      7
 New state      7 was old state      9
 New state      8 was old state     10
 New state      9 was old state     12
 New state     10 was old state     14
 New state     12 was old state     13
 New state     13 was old state     15
 New state     14 was old state     16
 New state     15 was old state     20
 New state     16 was old state     17
 New state     17 was old state     18
 New state     18 was old state     19
 New state     19 was old state     22
 New state     20 was old state     21
 Iteration     2 Dimension   160 NMult   160
 New state      7 was old state      9
 New state      8 was old state      7
 New state      9 was old state      8
 New state     14 was old state     15
 New state     15 was old state     14
 No map to state     17
 New state     18 was old state     17
 New state     19 was old state     18
 New state     20 was old state     19
 Iteration     3 Dimension   180 NMult   180
 Iteration     4 Dimension   200 NMult   200
 Iteration     5 Dimension   220 NMult   220
 Iteration     6 Dimension   240 NMult   240
 Iteration     7 Dimension   260 NMult   260
 Iteration     8 Dimension   280 NMult   280
 Iteration     9 Dimension   300 NMult   300
 Iteration    10 Dimension   320 NMult   320
 Davidson failed to converge within maximum sub-space dimensions.
  Restart with updated initial guess:
 Iteration     1 Dimension    40 NMult   360
 Iteration     2 Dimension    60 NMult   380
 Iteration     3 Dimension    78 NMult   398
 Iteration     4 Dimension    96 NMult   416
 Iteration     5 Dimension   111 NMult   431
 Iteration     6 Dimension   124 NMult   444
 Iteration     7 Dimension   134 NMult   454
 Iteration     8 Dimension   143 NMult   463
 Iteration     9 Dimension   147 NMult   467
 Iteration    10 Dimension   150 NMult   470
 ***********************************************************************
 Excited states from <AA,BB:AA,BB> singles matrix:
 ***********************************************************************
 
 Ground to excited state transition electric dipole moments (Au):
       state          X           Y           Z        Dip. S.      Osc.
         1         0.0000      0.0000      0.0000      0.0000      0.0000
         2         0.0000      0.0000      0.0583      0.0034      0.0005
         3         0.0000      0.0000     -0.1176      0.0138      0.0020
         4         0.0000      0.0000      0.0000      0.0000      0.0000
         5         0.0200      0.0119      0.0000      0.0005      0.0001
         6         0.0000      0.0000      0.0000      0.0000      0.0000
         7         0.0000      0.0000      0.0000      0.0000      0.0000
         8         0.2153      0.7508      0.0000      0.6100      0.1139
         9         0.0000      0.0000      0.0000      0.0000      0.0000
        10        -0.2580     -0.6399      0.0000      0.4760      0.0943
        11         0.0000      0.0000     -0.0438      0.0019      0.0004
        12         0.0000      0.0000      0.0000      0.0000      0.0000
        13         0.0000     -0.0001      0.0000      0.0000      0.0000
        14         0.0000      0.0000      0.0000      0.0000      0.0000
        15         0.0001     -0.0004      0.1016      0.0103      0.0022
        16        -0.6453      1.4788      0.0000      2.6032      0.5555
        17        -1.2901     -0.3226     -0.0001      1.7685      0.3878
        18        -0.0001      0.0000      0.0000      0.0000      0.0000
        19        -0.2262      0.0813      0.0000      0.0578      0.0131
        20         0.0008     -0.0003      0.0000      0.0000      0.0000
 Ground to excited state transition velocity dipole moments (Au):
       state          X           Y           Z        Dip. S.      Osc.
         1         0.0000      0.0000      0.0000      0.0000      0.0000
         2         0.0000      0.0000     -0.0030      0.0000      0.0000
         3         0.0000      0.0000      0.0382      0.0015      0.0045
         4         0.0000      0.0000      0.0000      0.0000      0.0000
         5        -0.0026     -0.0066      0.0000      0.0001      0.0002
         6         0.0000      0.0000      0.0000      0.0000      0.0000
         7         0.0000      0.0000      0.0000      0.0000      0.0000
         8        -0.0522     -0.2042      0.0000      0.0444      0.1057
         9         0.0000      0.0000      0.0000      0.0000      0.0000
        10         0.0745      0.1845      0.0000      0.0396      0.0889
        11         0.0000      0.0000      0.0234      0.0005      0.0012
        12         0.0000      0.0000      0.0000      0.0000      0.0000
        13         0.0000      0.0000      0.0000      0.0000      0.0000
        14         0.0000      0.0000      0.0000      0.0000      0.0000
        15         0.0000      0.0001     -0.0615      0.0038      0.0079
        16         0.2086     -0.4602      0.0000      0.2552      0.5316
        17         0.4315      0.1019      0.0000      0.1965      0.3983
        18         0.0000      0.0000      0.0000      0.0000      0.0000
        19         0.0654     -0.0264      0.0000      0.0050      0.0097
        20        -0.0002      0.0001      0.0000      0.0000      0.0000
 Ground to excited state transition magnetic dipole moments (Au):
       state          X           Y           Z
         1        -0.3491      0.8923      0.0000
         2        -0.0001      0.0002      0.0000
         3         0.0000      0.0001      0.0001
         4         0.0000      0.0001      0.3978
         5         0.0000     -0.0001      0.0004
         6         0.4700     -1.0040      0.0001
         7         0.0001     -0.0001     -1.9361
         8         0.0000      0.0000      0.0001
         9        -0.0001      0.0000      1.1394
        10         0.0000      0.0000      0.0001
        11         0.0000      0.0000     -0.0001
        12        -0.0023     -0.1056      0.0001
        13         0.3419      0.3235      0.0014
        14         0.0004      0.0002     -1.6279
        15         0.0000      0.0000      0.0000
        16         0.0000      0.0000      0.0001
        17         0.0000      0.0000      0.0000
        18        -0.8010     -0.5155      0.0001
        19         0.0001      0.0001      0.0002
        20         0.0002      0.0001      0.0556
 <0|del|b> * <b|rxdel|0> + <0|del|b> * <b|delr+rdel|0>
 Rotatory Strengths (R) in cgs (10**-40 erg-esu-cm/Gauss)
       state          XX          YY          ZZ    R(velocity)
         1         0.0001      0.0005      0.0005      0.0004
 Total R(velocity) tensor for State=          1
                 1             2             3 
      1   0.136771D-03  0.116408D-02  0.000000D+00
      2   0.534876D-04  0.455272D-03  0.000000D+00
      3  -0.705265D-04  0.180177D-03  0.491782D-03
         2         0.0000      0.0000      0.0000      0.0000
 Total R(velocity) tensor for State=          2
                 1             2             3 
      1  -0.227809D-04  0.660197D-04  0.000000D+00
      2   0.864798D-05 -0.159185D-04  0.000000D+00
      3  -0.257809D-03  0.696476D-03  0.000000D+00
         3         0.0108      0.0057      0.0000      0.0055
 Total R(velocity) tensor for State=          3
                 1             2             3 
      1   0.107761D-01  0.570300D-03  0.000000D+00
      2   0.116656D-03  0.569583D-02  0.000000D+00
      3   0.241594D-02 -0.396631D-02  0.000000D+00
         4        -0.0116     -0.0063      0.0000     -0.0059
 Total R(velocity) tensor for State=          4
                 1             2             3 
      1  -0.115789D-01 -0.743724D-04 -0.487741D-02
      2   0.157157D-03 -0.626937D-02 -0.299211D-02
      3   0.801411D-04 -0.684421D-04  0.000000D+00
         5         0.0007     -0.0001      0.0004      0.0003
 Total R(velocity) tensor for State=          5
                 1             2             3 
      1   0.655173D-03 -0.254634D-03  0.237900D-02
      2   0.243241D-03 -0.916898D-04  0.318107D-02
      3  -0.984924D-04  0.391749D-04  0.365516D-03
         6        -0.0036      0.0004     -0.0023     -0.0018
 Total R(velocity) tensor for State=          6
                 1             2             3 
      1  -0.358865D-02  0.987631D-03  0.000000D+00
      2  -0.151484D-02  0.417099D-03  0.000000D+00
      3  -0.169534D-02  0.319794D-02 -0.227933D-02
         7        -0.0113     -0.0054      0.0000     -0.0056
 Total R(velocity) tensor for State=          7
                 1             2             3 
      1  -0.113423D-01  0.184688D-02 -0.119394D-01
      2   0.297780D-03 -0.544762D-02 -0.517465D-02
      3   0.162542D-03 -0.195278D-03  0.000000D+00
         8         0.0045     -0.0001      0.0034      0.0026
 Total R(velocity) tensor for State=          8
                 1             2             3 
      1   0.450238D-02 -0.115187D-02  0.639469D-02
      2   0.373459D-03 -0.955101D-04  0.349543D-02
      3  -0.338788D-03  0.867193D-04  0.338742D-02
         9        -0.0012     -0.0009      0.0000     -0.0007
 Total R(velocity) tensor for State=          9
                 1             2             3 
      1  -0.124846D-02 -0.661780D-03  0.291616D-01
      2  -0.396660D-04 -0.894436D-03  0.140184D-01
      3  -0.925411D-04  0.950666D-04  0.130571D-05
        10         0.0035     -0.0007      0.0023      0.0017
 Total R(velocity) tensor for State=         10
                 1             2             3 
      1   0.347641D-02 -0.140284D-02 -0.299635D-01
      2   0.166596D-02 -0.672271D-03 -0.188923D-01
      3   0.861631D-03 -0.347687D-03  0.228443D-02
        11        -0.0027     -0.0003      0.0000     -0.0010
 Total R(velocity) tensor for State=         11
                 1             2             3 
      1  -0.268283D-02 -0.101441D-02  0.000000D+00
      2   0.258171D-03 -0.339841D-03  0.000000D+00
      3   0.272503D-03  0.186320D-03  0.000000D+00
        12         0.0028      0.0001     -0.0002      0.0009
 Total R(velocity) tensor for State=         12
                 1             2             3 
      1   0.275541D-02 -0.207181D-03  0.000000D+00
      2  -0.796484D-03  0.601155D-04  0.000000D+00
      3  -0.340346D-03 -0.560494D-04 -0.177262D-03
        13         0.0097     -0.0037      0.0013      0.0025
 Total R(velocity) tensor for State=         13
                 1             2             3 
      1   0.974048D-02  0.328744D-02  0.642643D-05
      2  -0.109784D-01 -0.370527D-02 -0.734399D-05
      3   0.329873D-03  0.491476D-03  0.134141D-02
        14        -0.0146     -0.0016      0.0000     -0.0054
 Total R(velocity) tensor for State=         14
                 1             2             3 
      1  -0.146009D-01 -0.291553D-02  0.205078D-01
      2   0.211556D-02 -0.158745D-02 -0.920096D-02
      3   0.363322D-03  0.237453D-03  0.000000D+00
        15         0.0010      0.0005      0.0000      0.0005
 Total R(velocity) tensor for State=         15
                 1             2             3 
      1   0.991466D-03  0.470721D-03  0.000000D+00
      2  -0.359695D-04  0.477820D-03  0.000000D+00
      3  -0.117724D-03 -0.594340D-03  0.000000D+00
        16         0.0136     -0.0003      0.0008      0.0047
 Total R(velocity) tensor for State=         16
                 1             2             3 
      1   0.136423D-01  0.618341D-02 -0.666732D-02
      2  -0.686843D-03 -0.311219D-03  0.980366D-02
      3  -0.131707D-02 -0.596966D-03  0.811702D-03
        17         0.0006      0.0038      0.0025      0.0023
 Total R(velocity) tensor for State=         17
                 1             2             3 
      1   0.573701D-03 -0.242605D-02 -0.186860D-01
      2  -0.905422D-03  0.383257D-02  0.103467D-01
      3   0.300548D-03 -0.127334D-02  0.245006D-02
        18        -0.0023     -0.0155     -0.0131     -0.0103
 Total R(velocity) tensor for State=         18
                 1             2             3 
      1  -0.225400D-02  0.800682D-02  0.000000D+00
      2   0.435279D-02 -0.154601D-01  0.000000D+00
      3   0.422437D-02  0.349057D-02 -0.130995D-01
        19        -0.0013      0.0109      0.0047      0.0048
 Total R(velocity) tensor for State=         19
                 1             2             3 
      1  -0.132687D-02 -0.329252D-02 -0.142058D-01
      2   0.440385D-02  0.109185D-01  0.108173D-01
      3  -0.934668D-04 -0.230469D-03  0.470107D-02
        20         0.0001      0.0000      0.0000      0.0000
 Total R(velocity) tensor for State=         20
                 1             2             3 
      1   0.839914D-04 -0.269822D-04  0.140529D-01
      2  -0.497976D-04  0.487786D-04 -0.102750D-01
      3   0.133508D-04  0.337060D-04 -0.184301D-04
 1/2[<0|r|b>*<b|rxdel|0> + (<0|rxdel|b>*<b|r|0>)*]
 Rotatory Strengths (R) in cgs (10**-40 erg-esu-cm/Gauss)
       state          XX          YY          ZZ     R(length)     R(au)
         1         0.0001      0.0013      0.0000      0.0005      0.0000
         2         0.0000      0.0000     -0.0001     -0.0001      0.0000
         3         0.0000      0.0000      0.0109      0.0036      0.0000
         4         0.0000      0.0000     -0.0130     -0.0043      0.0000
         5        -0.0003      0.0004      0.0000      0.0000      0.0000
         6         0.0005     -0.0037      0.0000     -0.0011      0.0000
         7         0.0000      0.0000     -0.0192     -0.0064      0.0000
         8        -0.0002      0.0082      0.0000      0.0027      0.0000
         9         0.0000      0.0000     -0.0027     -0.0009      0.0000
        10        -0.0004      0.0057      0.0000      0.0017      0.0000
        11         0.0000      0.0000     -0.0017     -0.0006      0.0000
        12         0.0000      0.0028      0.0000      0.0009      0.0000
        13        -0.0040      0.0118      0.0000      0.0026      0.0000
        14         0.0000      0.0000     -0.0187     -0.0062      0.0000
        15         0.0000      0.0000      0.0008      0.0003      0.0000
        16         0.0000      0.0145      0.0000      0.0048      0.0000
        17         0.0049      0.0020      0.0000      0.0023      0.0000
        18        -0.0290     -0.0049      0.0000     -0.0113      0.0000
        19         0.0208     -0.0036      0.0000      0.0058      0.0000
        20        -0.0001      0.0000      0.0001      0.0000      0.0000
  1/2[<0|del|b>*<b|r|0> + (<0|r|b>*<b|del|0>)*] (Au)
       state          X           Y           Z        Dip. S.   Osc.(frdel)
         1         0.0000      0.0000      0.0000      0.0000      0.0000
         2         0.0000      0.0000     -0.0002      0.0002      0.0001
         3         0.0000      0.0000     -0.0045      0.0045      0.0030
         4         0.0000      0.0000      0.0000      0.0000      0.0000
         5        -0.0001     -0.0001      0.0000      0.0001      0.0001
         6         0.0000      0.0000      0.0000      0.0000      0.0000
         7         0.0000      0.0000      0.0000      0.0000      0.0000
         8        -0.0112     -0.1533      0.0000      0.1645      0.1097
         9         0.0000      0.0000      0.0000      0.0000      0.0000
        10        -0.0192     -0.1181      0.0000      0.1373      0.0915
        11         0.0000      0.0000     -0.0010      0.0010      0.0007
        12         0.0000      0.0000      0.0000      0.0000      0.0000
        13         0.0000      0.0000      0.0000      0.0000      0.0000
        14         0.0000      0.0000      0.0000      0.0000      0.0000
        15         0.0000      0.0000     -0.0062      0.0062      0.0042
        16        -0.1346     -0.6805      0.0000      0.8151      0.5434
        17        -0.5566     -0.0329      0.0000      0.5895      0.3930
        18         0.0000      0.0000      0.0000      0.0000      0.0000
        19        -0.0148     -0.0021      0.0000      0.0169      0.0113
        20         0.0000      0.0000      0.0000      0.0000      0.0000
 Ground to excited state transition densities written to RWF  633

 Excitation energies and oscillator strengths:
 
 Excited state symmetry could not be determined.
 Excited State   1:      Singlet-?Sym    5.3388 eV  232.23 nm  f=0.0000  <S**2>=0.000
      24 -> 25         0.70073
 This state for optimization and/or second-order correction.
 Copying the excited state density for this state as the 1-particle RhoCI density.
 
 Excited state symmetry could not be determined.
 Excited State   2:      Singlet-?Sym    5.5102 eV  225.01 nm  f=0.0005  <S**2>=0.000
      22 -> 25         0.19153
      24 -> 26         0.68064
 
 Excited state symmetry could not be determined.
 Excited State   3:      Singlet-?Sym    5.8757 eV  211.01 nm  f=0.0020  <S**2>=0.000
      22 -> 25         0.68045
      24 -> 26        -0.19142
 
 Excited state symmetry could not be determined.
 Excited State   4:      Singlet-?Sym    5.8955 eV  210.30 nm  f=0.0000  <S**2>=0.000
      21 -> 26         0.43151
      23 -> 25         0.55996
 
 Excited state symmetry could not be determined.
 Excited State   5:      Singlet-?Sym    5.9241 eV  209.29 nm  f=0.0001  <S**2>=0.000
      21 -> 25         0.50468
      23 -> 26         0.49526
 
 Excited state symmetry could not be determined.
 Excited State   6:      Singlet-?Sym    6.0468 eV  205.04 nm  f=0.0000  <S**2>=0.000
      22 -> 26         0.70052
 
 Excited state symmetry could not be determined.
 Excited State   7:      Singlet-?Sym    7.4815 eV  165.72 nm  f=0.0000  <S**2>=0.000
      21 -> 26         0.51569
      22 -> 27        -0.22649
      23 -> 25        -0.38953
      24 -> 28         0.13385
 
 Excited state symmetry could not be determined.
 Excited State   8:      Singlet-?Sym    7.6203 eV  162.70 nm  f=0.1139  <S**2>=0.000
      21 -> 25         0.35258
      22 -> 28        -0.13332
      23 -> 26        -0.35850
      24 -> 27         0.47500
 
 Excited state symmetry could not be determined.
 Excited State   9:      Singlet-?Sym    7.9439 eV  156.08 nm  f=0.0000  <S**2>=0.000
      22 -> 27         0.18393
      24 -> 28         0.67720
 
 Excited state symmetry could not be determined.
 Excited State  10:      Singlet-?Sym    8.0828 eV  153.39 nm  f=0.0943  <S**2>=0.000
      21 -> 25        -0.23326
      22 -> 28         0.39576
      23 -> 26         0.23787
      24 -> 27         0.47023
 
 Excited state symmetry could not be determined.
 Excited State  11:      Singlet-?Sym    8.2951 eV  149.47 nm  f=0.0004  <S**2>=0.000
      21 -> 28         0.13986
      23 -> 27         0.69179
 
 Excited state symmetry could not be determined.
 Excited State  12:      Singlet-?Sym    8.3848 eV  147.87 nm  f=0.0000  <S**2>=0.000
      21 -> 27         0.31740
      23 -> 28         0.63138
 
 Excited state symmetry could not be determined.
 Excited State  13:      Singlet-?Sym    8.5488 eV  145.03 nm  f=0.0000  <S**2>=0.000
      21 -> 27         0.62919
      23 -> 28        -0.31377
 
 Excited state symmetry could not be determined.
 Excited State  14:      Singlet-?Sym    8.5648 eV  144.76 nm  f=0.0000  <S**2>=0.000
      21 -> 26         0.17027
      22 -> 27         0.62814
      23 -> 25        -0.14295
      24 -> 28        -0.13675
      24 -> 30         0.14121
 
 Excited state symmetry could not be determined.
 Excited State  15:      Singlet-?Sym    8.6387 eV  143.52 nm  f=0.0022  <S**2>=0.000
      21 -> 28         0.68941
      23 -> 27        -0.13457
 
 Excited state symmetry could not be determined.
 Excited State  16:      Singlet-?Sym    8.7098 eV  142.35 nm  f=0.5555  <S**2>=0.000
      21 -> 25         0.23467
      22 -> 28         0.56652
      23 -> 26        -0.23927
      24 -> 27        -0.20636
 
 Excited state symmetry could not be determined.
 Excited State  17:      Singlet-?Sym    8.9510 eV  138.51 nm  f=0.3878  <S**2>=0.000
      24 -> 29         0.69196
 
 Excited state symmetry could not be determined.
 Excited State  18:      Singlet-?Sym    9.2165 eV  134.52 nm  f=0.0000  <S**2>=0.000
      17 -> 26         0.13805
      20 -> 25         0.69113
 
 Excited state symmetry could not be determined.
 Excited State  19:      Singlet-?Sym    9.2477 eV  134.07 nm  f=0.0131  <S**2>=0.000
      18 -> 26        -0.46012
      19 -> 25         0.53519
 
 Excited state symmetry could not be determined.
 Excited State  20:      Singlet-?Sym    9.2561 eV  133.95 nm  f=0.0000  <S**2>=0.000
      18 -> 25         0.50718
      19 -> 26        -0.49131
 SavETr:  write IOETrn=   770 NScale= 10 NData=  16 NLR=1 LETran=     370.
          IDoAtm=111111111111
 NEqPCM:  Using equilibrium solvation (IEInf=0, Eps=  78.3553, EpsInf=   1.7778)
          Differentiating once with respect to electric field.
                with respect to dipole field.
          Differentiating once with respect to nuclear coordinates.
          There are     1 degrees of freedom in the 1st order CPHF.  IDoFFX=0.
 FoFCou: FMM=F IPFlag=           0 FMFlag=      100000 FMFlg1=           0
         NFxFlg=           0 DoJE=T BraDBF=T KetDBF=F FulRan=T
         Omega=  0.000000  0.000000  1.000000  0.000000  0.000000 ICntrl=     500 IOpCl=  0
         NMat0=    1 NMatS0=    1 NMatT0=    0 NMatD0=    1 NMtDS0=    0 NMtDT0=    0
         I1Cent=           5 NGrid=           0.
 Symmetry not used in FoFCou.
 LinEq1:  Iter=  0 NonCon=     1 RMS=2.67D-02 Max=6.56D-01
 AX will form     1 AO Fock derivatives at one time.
 LinEq1:  Iter=  1 NonCon=     1 RMS=1.10D-02 Max=2.45D-01
 LinEq1:  Iter=  2 NonCon=     1 RMS=8.61D-03 Max=1.67D-01
 LinEq1:  Iter=  3 NonCon=     1 RMS=2.80D-03 Max=4.21D-02
 LinEq1:  Iter=  4 NonCon=     1 RMS=1.07D-03 Max=1.30D-02
 LinEq1:  Iter=  5 NonCon=     1 RMS=1.95D-04 Max=3.45D-03
 LinEq1:  Iter=  6 NonCon=     1 RMS=5.29D-05 Max=7.57D-04
 LinEq1:  Iter=  7 NonCon=     1 RMS=2.65D-05 Max=7.28D-04
 LinEq1:  Iter=  8 NonCon=     1 RMS=2.03D-05 Max=2.51D-04
 LinEq1:  Iter=  9 NonCon=     1 RMS=2.69D-06 Max=2.23D-05
 LinEq1:  Iter= 10 NonCon=     1 RMS=1.17D-06 Max=1.86D-05
 LinEq1:  Iter= 11 NonCon=     1 RMS=4.71D-07 Max=6.86D-06
 LinEq1:  Iter= 12 NonCon=     1 RMS=3.33D-07 Max=4.80D-06
 LinEq1:  Iter= 13 NonCon=     1 RMS=1.19D-07 Max=9.60D-07
 LinEq1:  Iter= 14 NonCon=     1 RMS=1.40D-08 Max=1.53D-07
 LinEq1:  Iter= 15 NonCon=     1 RMS=1.66D-09 Max=1.48D-08
 LinEq1:  Iter= 16 NonCon=     1 RMS=2.64D-10 Max=4.00D-09
 LinEq1:  Iter= 17 NonCon=     0 RMS=2.48D-11 Max=2.67D-10
 Linear equations converged to 1.000D-10 1.000D-09 after    17 iterations.
 End of Minotr Frequency-dependent properties file   721 does not exist.
 End of Minotr Frequency-dependent properties file   722 does not exist.

 **********************************************************************

            Population analysis using the SCF density.

 **********************************************************************

 Alpha  occ. eigenvalues --  -18.75328 -18.75328 -14.02277 -14.02277  -9.99516
 Alpha  occ. eigenvalues --   -9.99516  -0.94124  -0.93679  -0.82184  -0.81677
 Alpha  occ. eigenvalues --   -0.56408  -0.54525  -0.49218  -0.48335  -0.44490
 Alpha  occ. eigenvalues --   -0.40060  -0.37255  -0.35629  -0.35104  -0.35066
 Alpha  occ. eigenvalues --   -0.23504  -0.22796  -0.22731  -0.20984
 Alpha virt. eigenvalues --   -0.01681  -0.01019   0.07542   0.07951   0.11166
 Alpha virt. eigenvalues --    0.12884   0.15796   0.19725   0.23901   0.28697
 Alpha virt. eigenvalues --    0.31035   0.34687   0.48658   0.49223   0.50582
 Alpha virt. eigenvalues --    0.53208   0.58214   0.58244   0.60379   0.63895
 Alpha virt. eigenvalues --    0.64755   0.67407   0.67588   0.67839   0.77726
 Alpha virt. eigenvalues --    0.78495   0.79735   0.80916   0.84202   0.85635
 Alpha virt. eigenvalues --    0.91376   0.93850   0.97549   0.99718   1.10912
 Alpha virt. eigenvalues --    1.18256   1.18442   1.26074   1.26756   1.26869
 Alpha virt. eigenvalues --    1.30287   1.31194   1.32516   1.32603   1.42806
 Alpha virt. eigenvalues --    1.43539   1.44091   1.50133   1.67327   1.69920
 Alpha virt. eigenvalues --    1.73045   1.73345   1.75265   1.78301   1.89188
 Alpha virt. eigenvalues --    1.91875   1.92561   1.92679   2.03563   2.03583
 Alpha virt. eigenvalues --    2.04297   2.05228   2.15878   2.18208   2.19102
 Alpha virt. eigenvalues --    2.24362   2.28443   2.29203   2.38779   2.41201
 Alpha virt. eigenvalues --    2.44510   2.44615   2.52895   2.53171   2.64013
 Alpha virt. eigenvalues --    2.65035   2.66905   2.67205   2.74738   2.77329
 Alpha virt. eigenvalues --    2.88128   2.91340   2.93813   2.96458   3.14578
 Alpha virt. eigenvalues --    3.17859   3.36935   3.38712   3.54008   3.58501
 Alpha virt. eigenvalues --    3.80163   3.86451   3.90870   4.07846   4.30644
 Alpha virt. eigenvalues --    4.31154
          Condensed to atoms (all electrons):
              1          2          3          4          5          6
     1  C    4.487499   0.317084   0.505478  -0.015571  -0.010563   0.383358
     2  N    0.317084   6.890184  -0.079224   0.249372   0.318894  -0.101557
     3  O    0.505478  -0.079224   8.056766   0.000049   0.003298  -0.049217
     4  H   -0.015571   0.249372   0.000049   0.386308  -0.014090   0.003925
     5  H   -0.010563   0.318894   0.003298  -0.014090   0.401098   0.001548
     6  H    0.383358  -0.101557  -0.049217   0.003925   0.001548   0.649593
     7  C    0.000036   0.001184   0.000139  -0.005554  -0.000001  -0.000003
     8  N    0.001184   0.001992  -0.032844  -0.005474  -0.000032  -0.000149
     9  O    0.000139  -0.032842  -0.000180   0.088453   0.000546  -0.000027
    10  H   -0.005554  -0.005474   0.088455   0.005610   0.000140   0.001378
    11  H   -0.000003  -0.000149  -0.000027   0.001378   0.000002   0.000000
    12  H   -0.000001  -0.000032   0.000546   0.000140   0.000001   0.000002
              7          8          9         10         11         12
     1  C    0.000036   0.001184   0.000139  -0.005554  -0.000003  -0.000001
     2  N    0.001184   0.001992  -0.032842  -0.005474  -0.000149  -0.000032
     3  O    0.000139  -0.032844  -0.000180   0.088455  -0.000027   0.000546
     4  H   -0.005554  -0.005474   0.088453   0.005610   0.001378   0.000140
     5  H   -0.000001  -0.000032   0.000546   0.000140   0.000002   0.000001
     6  H   -0.000003  -0.000149  -0.000027   0.001378   0.000000   0.000002
     7  C    4.487500   0.317083   0.505479  -0.015571   0.383358  -0.010563
     8  N    0.317083   6.890192  -0.079225   0.249370  -0.101557   0.318893
     9  O    0.505479  -0.079225   8.056766   0.000050  -0.049217   0.003298
    10  H   -0.015571   0.249370   0.000050   0.386305   0.003925  -0.014090
    11  H    0.383358  -0.101557  -0.049217   0.003925   0.649597   0.001548
    12  H   -0.010563   0.318893   0.003298  -0.014090   0.001548   0.401100
 Mulliken atomic charges:
              1
     1  C    0.336914
     2  N   -0.559433
     3  O   -0.493241
     4  H    0.305454
     5  H    0.299159
     6  H    0.111148
     7  C    0.336912
     8  N   -0.559434
     9  O   -0.493241
    10  H    0.305456
    11  H    0.111146
    12  H    0.299158
 Sum of Mulliken atomic charges =   0.00000
 Mulliken charges with hydrogens summed into heavy atoms:
              1
     1  C    0.448062
     2  N    0.045181
     3  O   -0.493241
     7  C    0.448059
     8  N    0.045180
     9  O   -0.493241
 Sum of Mulliken charges with hydrogens summed into heavy atoms =   0.00000
 Electronic spatial extent (au):  <R**2>=            747.6864
 Charge=              0.0000 electrons
 Dipole moment (field-independent basis, Debye):
    X=             -0.0001    Y=              0.0000    Z=              0.0002  Tot=              0.0002
 Quadrupole moment (field-independent basis, Debye-Ang):
   XX=            -24.5426   YY=            -33.9559   ZZ=            -36.8137
   XY=            -13.0848   XZ=              0.0009   YZ=             -0.0007
 Traceless Quadrupole moment (field-independent basis, Debye-Ang):
   XX=              7.2282   YY=             -2.1852   ZZ=             -5.0430
   XY=            -13.0848   XZ=              0.0009   YZ=             -0.0007
 Octapole moment (field-independent basis, Debye-Ang**2):
  XXX=             -0.0008  YYY=              0.0000  ZZZ=             -0.0001  XYY=             -0.0002
  XXY=              0.0000  XXZ=              0.0005  XZZ=              0.0000  YZZ=              0.0000
  YYZ=              0.0005  XYZ=             -0.0001
 Hexadecapole moment (field-independent basis, Debye-Ang**3):
 XXXX=           -535.0556 YYYY=           -208.4350 ZZZZ=            -30.9676 XXXY=            -46.0456
 XXXZ=             -0.0107 YYYX=            -52.8262 YYYZ=             -0.0011 ZZZX=             -0.0190
 ZZZY=              0.0031 XXYY=           -131.1917 XXZZ=           -117.9723 YYZZ=            -47.2285
 XXYZ=             -0.0022 YYXZ=             -0.0041 ZZXY=              2.9138
 N-N= 2.291635830390D+02 E-N=-1.254009939341D+03  KE= 3.362722464287D+02
 D1PCM: PCM CHGder 1st derivatives, ID1Alg=3 FixD1E=F DoIter=F DoCFld=F I1PDM=6.
 Fitting Gamma and (X+Y) densities for TD-KS first derivatives, JSym2E=0.
 Calling FoFJK, ICntrl=      5527 FMM=F ISym2X=0 I1Cent= 4 IOpClX= 0 NMat=1 NMatS=1 NMatT=0.
 -------------------------------------------------------------------
 Center     Atomic                   Forces (Hartrees/Bohr)
 Number     Number              X              Y              Z
 -------------------------------------------------------------------
      1        6          -0.049407701    0.039919077   -0.000003145
      2        7           0.021248376    0.025700746    0.000000709
      3        8           0.033122051   -0.057821677    0.000002849
      4        1          -0.006991666    0.001491172   -0.000000116
      5        1           0.001867109   -0.001433608    0.000000062
      6        1           0.003968845   -0.005117240    0.000000145
      7        6           0.049383104   -0.039926562    0.000005466
      8        7          -0.021229460   -0.025676570   -0.000001106
      9        8          -0.033101750    0.057800317   -0.000005036
     10        1           0.006976488   -0.001489933    0.000000242
     11        1          -0.003970370    0.005119781   -0.000000157
     12        1          -0.001865026    0.001434498    0.000000087
 -------------------------------------------------------------------
 Cartesian Forces:  Max     0.057821677 RMS     0.023192121

 GradGradGradGradGradGradGradGradGradGradGradGradGradGradGradGradGradGrad
 Berny optimization.
 Search for a local minimum.
 Step number   1 out of a maximum of    2
 All quantities printed in internal units (Hartrees-Bohrs-Radians)
 Second derivative matrix not updated -- first step.
     Eigenvalues ---    0.00000   0.00000   0.00000   0.00000   0.00001
     Eigenvalues ---    0.00001   0.02882   0.02964   0.04728   0.04909
     Eigenvalues ---    0.08913   0.09400   0.09601   0.09990   0.14914
     Eigenvalues ---    0.15026   0.19018   0.19612   0.26560   0.27353
     Eigenvalues ---    0.35279   0.35574   0.64871   0.68747   1.13655
     Eigenvalues ---    1.19522   1.40454   1.40721   2.04023   2.04482
 Eigenvalue     1 is  -1.11D-16 should be greater than     0.000000 Eigenvector:
                          X5        X4        X2        X9        X7
   1                    0.29370   0.29025   0.28987  -0.28769  -0.28623
                          X11       X8        X6        X10       X1
   1                   -0.28617  -0.28464   0.28460  -0.28453   0.28437
 Eigenvalue     2 is   4.52D-17 Eigenvector:
                          Y10       X9        X12       Y11       Y4
   1                   -0.47946  -0.43329   0.39390   0.24190   0.22825
                          Y8        Y9        X10       X8        Y2
   1                   -0.20664  -0.20521   0.19475   0.17298   0.15814
 Eigenvalue     3 is   8.95D-17 Eigenvector:
                          X5        Y4        X3        Y6        X4
   1                   -0.43878   0.42536   0.42482  -0.32774  -0.23087
                          Y11       X12       X2        Y2        Y3
   1                   -0.22391  -0.21540  -0.20814   0.14054   0.13906
 Eigenvalue     4 is   7.22D-09 Eigenvector:
                          Z10       Z4        Z12       Z5        Z6
   1                   -0.41078  -0.41077  -0.32795  -0.32795   0.28337
                          Z11       Z3        Z9        Z8        Z2
   1                    0.28337   0.27248   0.27248  -0.23269  -0.23269
 Eigenvalue     5 is   1.12D-05 Eigenvector:
                          Z4        Z10       Z6        Z11       Z9
   1                    0.49604  -0.49604  -0.41251   0.41251  -0.23431
                          Z3        Z2        Z8        Z12       Z5
   1                    0.23431   0.13189  -0.13189   0.10313  -0.10313
 Eigenvalue     6 is   1.47D-05 Eigenvector:
                          Z11       Z6        Z5        Z12       Z3
   1                    0.41812   0.41812   0.38948   0.38948  -0.31709
                          Z9        Z4        Z10       Z2        Z8
   1                   -0.31708  -0.25286  -0.25286   0.06942   0.06942
 Quadratic step=3.940D+01 exceeds max=3.000D-01 adjusted using Lamda=-1.510D-02.
 Angle between NR and scaled steps=  30.17 degrees.
 Angle between quadratic step and forces=  68.85 degrees.
 Linear search not attempted -- first point.
 TrRot=  0.000014 -0.000001  0.000000  0.000069  0.000001  0.000069
 Variable       Old X    -DE/DX   Delta X   Delta X   Delta X     New X
                                 (Linear)    (Quad)   (Total)
    X1       -3.82674  -0.04941   0.00000   0.03271   0.03275  -3.79399
    Y1       -0.20103   0.03992   0.00000   0.02453   0.02401  -0.17702
    Z1       -0.00022   0.00000   0.00000   0.00000   0.00000  -0.00022
    X2       -2.70305   0.02125   0.00000   0.03007   0.02979  -2.67326
    Y2        2.07591   0.02570   0.00000   0.07839   0.07802   2.15393
    Z2       -0.00018   0.00000   0.00000   0.00000   0.00000  -0.00018
    X3       -2.71326   0.03312   0.00000   0.12305   0.12338  -2.58988
    Y3       -2.28251  -0.05782   0.00000  -0.01606  -0.01642  -2.29893
    Z3       -0.00014   0.00000   0.00000   0.00002   0.00002  -0.00012
    X4       -0.74179  -0.00699   0.00000   0.01058   0.01028  -0.73151
    Y4        2.23244   0.00149   0.00000   0.10450   0.10440   2.33684
    Z4       -0.00008   0.00000   0.00000   0.00001   0.00001  -0.00006
    X5       -3.78363   0.00187   0.00000   0.01480   0.01430  -3.76933
    Y5        3.66404  -0.00143   0.00000   0.06029   0.05977   3.72381
    Z5       -0.00022   0.00000   0.00000  -0.00001   0.00000  -0.00023
    X6       -5.92753   0.00397   0.00000   0.03958   0.03961  -5.88791
    Y6       -0.10760  -0.00512   0.00000  -0.06792  -0.06873  -0.17633
    Z6       -0.00030   0.00000   0.00000  -0.00001   0.00000  -0.00030
    X7        3.82674   0.04938   0.00000  -0.03271  -0.03272   3.79402
    Y7        0.20102  -0.03993   0.00000  -0.02458  -0.02406   0.17696
    Z7        0.00024   0.00001   0.00000   0.00000   0.00000   0.00024
    X8        2.70302  -0.02123   0.00000  -0.03015  -0.02984   2.67318
    Y8       -2.07590  -0.02568   0.00000  -0.07835  -0.07798  -2.15388
    Z8        0.00023   0.00000   0.00000  -0.00001  -0.00001   0.00022
    X9        2.71328  -0.03310   0.00000  -0.12289  -0.12319   2.59009
    Y9        2.28252   0.05780   0.00000   0.01606   0.01641   2.29893
    Z9        0.00007  -0.00001   0.00000  -0.00001  -0.00001   0.00005
   X10        0.74176   0.00698   0.00000  -0.01071  -0.01037   0.73139
   Y10       -2.23241  -0.00149   0.00000  -0.10438  -0.10429  -2.33670
   Z10        0.00012   0.00000   0.00000  -0.00002  -0.00002   0.00010
   X11        5.92753  -0.00397   0.00000  -0.03958  -0.03959   5.88794
   Y11        0.10757   0.00512   0.00000   0.06781   0.06862   0.17618
   Z11        0.00032   0.00000   0.00000   0.00001   0.00001   0.00033
   X12        3.78359  -0.00187   0.00000  -0.01492  -0.01439   3.76920
   Y12       -3.66405   0.00143   0.00000  -0.06027  -0.05975  -3.72380
   Z12        0.00033   0.00000   0.00000   0.00000   0.00000   0.00033
         Item               Value     Threshold  Converged?
 Maximum Force            0.057822     0.000450     NO 
 RMS     Force            0.023192     0.000300     NO 
 Maximum Displacement     0.123379     0.001800     NO 
 RMS     Displacement     0.050082     0.001200     NO 
 Predicted change in Energy=-8.229951D-03
 GradGradGradGradGradGradGradGradGradGradGradGradGradGradGradGradGradGrad

 1\1\GINC-CLODOMIRA\Force\RTD-PBEPBE-FC\6-31G(d,p)\C2H6N2O2\DIEGOA\07-N
 ov-2019\0\\# pbepbe/6-31G** force nosymm td(root=1,nstates=20,nonEqSol
 v) SCRF=PCM guess=read\\Title\\0,1\C,-2.025022,-0.10638,-0.000118\N,-1
 .43039,1.098523,-0.000097\O,-1.435793,-1.207854,-0.000074\H,-0.392539,
 1.181354,-0.00004\H,-2.002209,1.938928,-0.000117\H,-3.136712,-0.056939
 ,-0.000158\C,2.025023,0.106375,0.000125\N,1.430377,-1.09852,0.000122\O
 ,1.435807,1.207856,0.000035\H,0.392524,-1.181342,0.000061\H,3.136714,0
 .056921,0.000169\H,2.002188,-1.938932,0.000174\\Version=EM64L-G09RevA.
 01\HF=-339.4507888\RMSD=2.776e-09\RMSF=2.319e-02\Dipole=0.0011216,0.00
 00719,0.0000475\PG=C01 [X(C2H6N2O2)]\\@


 IF THERE IS ONE WAY BETTER THAN ANOTHER IT IS THE WAY OF NATURE.

                          -- ARISTOTLE
 Job cpu time:  0 days  0 hours 11 minutes 59.3 seconds.
 File lengths (MBytes):  RWF=    129 Int=      0 D2E=      0 Chk=     20 Scr=      1
 Normal termination of Gaussian 09 at Thu Nov  7 16:44:18 2019.
