 Entering Gaussian System, Link 0=g09
 Input=freq.com
 Output=freq.log
 Initial command:
 /home/diegoa/progs/g09/l1.exe /home/diegoa/g09scratch/Gau-3375.inp -scrdir=/home/diegoa/g09scratch/
 Default is to use a total of   4 processors:
                                4 via shared-memory
                                1 via Linda
 Entering Link 1 = /home/diegoa/progs/g09/l1.exe PID=      3396.
  
 Copyright (c) 1988,1990,1992,1993,1995,1998,2003,2009, Gaussian, Inc.
                  All Rights Reserved.
  
 This is part of the Gaussian(R) 09 program.  It is based on
 the Gaussian(R) 03 system (copyright 2003, Gaussian, Inc.),
 the Gaussian(R) 98 system (copyright 1998, Gaussian, Inc.),
 the Gaussian(R) 94 system (copyright 1995, Gaussian, Inc.),
 the Gaussian 92(TM) system (copyright 1992, Gaussian, Inc.),
 the Gaussian 90(TM) system (copyright 1990, Gaussian, Inc.),
 the Gaussian 88(TM) system (copyright 1988, Gaussian, Inc.),
 the Gaussian 86(TM) system (copyright 1986, Carnegie Mellon
 University), and the Gaussian 82(TM) system (copyright 1983,
 Carnegie Mellon University). Gaussian is a federally registered
 trademark of Gaussian, Inc.
  
 This software contains proprietary and confidential information,
 including trade secrets, belonging to Gaussian, Inc.
  
 This software is provided under written license and may be
 used, copied, transmitted, or stored only in accord with that
 written license.
  
 The following legend is applicable only to US Government
 contracts under FAR:
  
                    RESTRICTED RIGHTS LEGEND
  
 Use, reproduction and disclosure by the US Government is
 subject to restrictions as set forth in subparagraphs (a)
 and (c) of the Commercial Computer Software - Restricted
 Rights clause in FAR 52.227-19.
  
 Gaussian, Inc.
 340 Quinnipiac St., Bldg. 40, Wallingford CT 06492
  
  
 ---------------------------------------------------------------
 Warning -- This program may not be used in any manner that
 competes with the business of Gaussian, Inc. or will provide
 assistance to any competitor of Gaussian, Inc.  The licensee
 of this program is prohibited from giving any competitor of
 Gaussian, Inc. access to this program.  By using this program,
 the user acknowledges that Gaussian, Inc. is engaged in the
 business of creating and licensing software in the field of
 computational chemistry and represents and warrants to the
 licensee that it is not a competitor of Gaussian, Inc. and that
 it will not use this program in any manner prohibited above.
 ---------------------------------------------------------------
  

 Cite this work as:
 Gaussian 09, Revision A.01,
 M. J. Frisch, G. W. Trucks, H. B. Schlegel, G. E. Scuseria, 
 M. A. Robb, J. R. Cheeseman, G. Scalmani, V. Barone, B. Mennucci, 
 G. A. Petersson, H. Nakatsuji, M. Caricato, X. Li, H. P. Hratchian, 
 A. F. Izmaylov, J. Bloino, G. Zheng, J. L. Sonnenberg, M. Hada, 
 M. Ehara, K. Toyota, R. Fukuda, J. Hasegawa, M. Ishida, T. Nakajima, 
 Y. Honda, O. Kitao, H. Nakai, T. Vreven, J. A. Montgomery, Jr., 
 J. E. Peralta, F. Ogliaro, M. Bearpark, J. J. Heyd, E. Brothers, 
 K. N. Kudin, V. N. Staroverov, R. Kobayashi, J. Normand, 
 K. Raghavachari, A. Rendell, J. C. Burant, S. S. Iyengar, J. Tomasi, 
 M. Cossi, N. Rega, J. M. Millam, M. Klene, J. E. Knox, J. B. Cross, 
 V. Bakken, C. Adamo, J. Jaramillo, R. Gomperts, R. E. Stratmann, 
 O. Yazyev, A. J. Austin, R. Cammi, C. Pomelli, J. W. Ochterski, 
 R. L. Martin, K. Morokuma, V. G. Zakrzewski, G. A. Voth, 
 P. Salvador, J. J. Dannenberg, S. Dapprich, A. D. Daniels, 
 O. Farkas, J. B. Foresman, J. V. Ortiz, J. Cioslowski, 
 and D. J. Fox, Gaussian, Inc., Wallingford CT, 2009.
 
 ******************************************
 Gaussian 09:  EM64L-G09RevA.01  8-May-2009
                 1-Nov-2019 
 ******************************************
 %chk=freq.chk
 %NProcShared=4
 Will use up to    4 processors via shared memory.
 Default route:  MP2=Direct MaxDisk=1000GB DenFit
 ----------------------------------------------------------------------
 # pbepbe/6-31G** opt(maxcycles=500) Freq=(savenormalmodes,raman) SCRF=
 PCM nosymm
 ----------------------------------------------------------------------
 1/6=500,14=-1,18=20,19=15,26=3,38=1/1,3;
 2/9=110,12=2,15=1,17=6,18=5,40=1/2;
 3/5=1,6=6,7=101,11=2,16=1,25=1,30=1,70=2201,71=1,72=1,74=1009,82=47/1,2,3;
 4//1;
 5/5=2,38=5/2;
 6/7=2,8=2,9=2,10=2,28=1/1;
 7/30=1,92=1/1,2,3,16;
 1/6=500,14=-1,18=20,19=15/3(2);
 2/9=110,15=1/2;
 99//99;
 2/9=110,15=1/2;
 3/5=1,6=6,7=101,11=2,16=1,25=1,30=1,70=2205,71=1,74=1009,82=47/1,2,3;
 4/5=5,16=3/1;
 5/5=2,38=5/2;
 7/30=1,92=1/1,2,3,16;
 1/6=500,14=-1,18=20,19=15/3(-5);
 2/9=110,15=1/2;
 6/7=2,8=2,9=2,10=2,19=2,28=1/1;
 99/9=1/99;
 -----
 Title
 -----
 Symbolic Z-matrix:
 Charge =  0 Multiplicity = 1
 8                     5.23574   0.61737  -0.00045 
 16                   -4.174     0.23536   0.00032 
 8                    -2.82338  -1.99459   0.00031 
 6                     1.16759  -0.42173  -0.0001 
 6                     1.55638   0.9403   -0.00024 
 6                     2.19788  -1.39577  -0.00009 
 6                     2.89952   1.30874  -0.00036 
 6                     3.54497  -1.04277  -0.00021 
 6                     3.90433   0.31806  -0.00034 
 6                    -0.21769  -0.86465   0.00003 
 6                    -1.3476   -0.10484   0.00012 
 6                    -2.65935  -0.77672   0.00026 
 1                     0.79432   1.72508  -0.00027 
 1                     1.92117  -2.45509   0.00001 
 1                     3.17945   2.36879  -0.00047 
 1                     4.33376  -1.79896  -0.0002 
 1                    -0.37801  -1.95136   0.00008 
 1                    -1.30745   0.98686   0.0001 
 1                     5.33408   1.58816  -0.00053 
 6                    -3.65301   1.99138   0.00032 
 1                    -4.58584   2.57518   0.00044 
 1                    -3.08232   2.25066  -0.90377 
 1                    -3.0821    2.25061   0.90428 
 

 GradGradGradGradGradGradGradGradGradGradGradGradGradGradGradGradGradGrad
 Berny optimization.
 Initialization pass.
                           ----------------------------
                           !    Initial Parameters    !
                           ! (Angstroms and Degrees)  !
 --------------------------                            --------------------------
 ! Name  Definition              Value          Derivative Info.                !
 --------------------------------------------------------------------------------
 ! R1    R(1,9)                  1.3646         estimate D2E/DX2                !
 ! R2    R(1,19)                 0.9758         estimate D2E/DX2                !
 ! R3    R(2,12)                 1.8217         estimate D2E/DX2                !
 ! R4    R(2,20)                 1.8317         estimate D2E/DX2                !
 ! R5    R(3,12)                 1.2289         estimate D2E/DX2                !
 ! R6    R(4,5)                  1.4164         estimate D2E/DX2                !
 ! R7    R(4,6)                  1.4178         estimate D2E/DX2                !
 ! R8    R(4,10)                 1.4544         estimate D2E/DX2                !
 ! R9    R(5,7)                  1.3928         estimate D2E/DX2                !
 ! R10   R(5,13)                 1.0939         estimate D2E/DX2                !
 ! R11   R(6,8)                  1.3926         estimate D2E/DX2                !
 ! R12   R(6,14)                 1.0949         estimate D2E/DX2                !
 ! R13   R(7,9)                  1.4111         estimate D2E/DX2                !
 ! R14   R(7,15)                 1.0964         estimate D2E/DX2                !
 ! R15   R(8,9)                  1.4075         estimate D2E/DX2                !
 ! R16   R(8,16)                 1.0927         estimate D2E/DX2                !
 ! R17   R(10,11)                1.3616         estimate D2E/DX2                !
 ! R18   R(10,17)                1.0985         estimate D2E/DX2                !
 ! R19   R(11,12)                1.4738         estimate D2E/DX2                !
 ! R20   R(11,18)                1.0924         estimate D2E/DX2                !
 ! R21   R(20,21)                1.1005         estimate D2E/DX2                !
 ! R22   R(20,22)                1.1001         estimate D2E/DX2                !
 ! R23   R(20,23)                1.1001         estimate D2E/DX2                !
 ! A1    A(9,1,19)             108.4545         estimate D2E/DX2                !
 ! A2    A(12,2,20)            107.2254         estimate D2E/DX2                !
 ! A3    A(5,4,6)              117.4607         estimate D2E/DX2                !
 ! A4    A(5,4,10)             123.6627         estimate D2E/DX2                !
 ! A5    A(6,4,10)             118.8766         estimate D2E/DX2                !
 ! A6    A(4,5,7)              121.2713         estimate D2E/DX2                !
 ! A7    A(4,5,13)             119.9102         estimate D2E/DX2                !
 ! A8    A(7,5,13)             118.8185         estimate D2E/DX2                !
 ! A9    A(4,6,8)              121.9239         estimate D2E/DX2                !
 ! A10   A(4,6,14)             118.7527         estimate D2E/DX2                !
 ! A11   A(8,6,14)             119.3234         estimate D2E/DX2                !
 ! A12   A(5,7,9)              120.0659         estimate D2E/DX2                !
 ! A13   A(5,7,15)             120.1325         estimate D2E/DX2                !
 ! A14   A(9,7,15)             119.8016         estimate D2E/DX2                !
 ! A15   A(6,8,9)              119.4762         estimate D2E/DX2                !
 ! A16   A(6,8,16)             121.5248         estimate D2E/DX2                !
 ! A17   A(9,8,16)             118.999          estimate D2E/DX2                !
 ! A18   A(1,9,7)              122.7359         estimate D2E/DX2                !
 ! A19   A(1,9,8)              117.4622         estimate D2E/DX2                !
 ! A20   A(7,9,8)              119.8019         estimate D2E/DX2                !
 ! A21   A(4,10,11)            128.3499         estimate D2E/DX2                !
 ! A22   A(4,10,17)            116.1235         estimate D2E/DX2                !
 ! A23   A(11,10,17)           115.5267         estimate D2E/DX2                !
 ! A24   A(10,11,12)           118.9592         estimate D2E/DX2                !
 ! A25   A(10,11,18)           121.8123         estimate D2E/DX2                !
 ! A26   A(12,11,18)           119.2285         estimate D2E/DX2                !
 ! A27   A(2,12,3)             116.0795         estimate D2E/DX2                !
 ! A28   A(2,12,11)            119.1275         estimate D2E/DX2                !
 ! A29   A(3,12,11)            124.793          estimate D2E/DX2                !
 ! A30   A(2,20,21)            105.5148         estimate D2E/DX2                !
 ! A31   A(2,20,22)            111.9317         estimate D2E/DX2                !
 ! A32   A(2,20,23)            111.9321         estimate D2E/DX2                !
 ! A33   A(21,20,22)           108.3482         estimate D2E/DX2                !
 ! A34   A(21,20,23)           108.3485         estimate D2E/DX2                !
 ! A35   A(22,20,23)           110.5197         estimate D2E/DX2                !
 ! D1    D(19,1,9,7)             0.0002         estimate D2E/DX2                !
 ! D2    D(19,1,9,8)          -180.0            estimate D2E/DX2                !
 ! D3    D(20,2,12,3)          179.9971         estimate D2E/DX2                !
 ! D4    D(20,2,12,11)          -0.0044         estimate D2E/DX2                !
 ! D5    D(12,2,20,21)        -179.9953         estimate D2E/DX2                !
 ! D6    D(12,2,20,22)          62.362          estimate D2E/DX2                !
 ! D7    D(12,2,20,23)         -62.352          estimate D2E/DX2                !
 ! D8    D(6,4,5,7)             -0.0003         estimate D2E/DX2                !
 ! D9    D(6,4,5,13)           179.9993         estimate D2E/DX2                !
 ! D10   D(10,4,5,7)           179.9996         estimate D2E/DX2                !
 ! D11   D(10,4,5,13)           -0.0008         estimate D2E/DX2                !
 ! D12   D(5,4,6,8)              0.0004         estimate D2E/DX2                !
 ! D13   D(5,4,6,14)          -179.9997         estimate D2E/DX2                !
 ! D14   D(10,4,6,8)          -179.9995         estimate D2E/DX2                !
 ! D15   D(10,4,6,14)            0.0003         estimate D2E/DX2                !
 ! D16   D(5,4,10,11)           -0.0036         estimate D2E/DX2                !
 ! D17   D(5,4,10,17)          179.9968         estimate D2E/DX2                !
 ! D18   D(6,4,10,11)          179.9963         estimate D2E/DX2                !
 ! D19   D(6,4,10,17)           -0.0032         estimate D2E/DX2                !
 ! D20   D(4,5,7,9)              0.0            estimate D2E/DX2                !
 ! D21   D(4,5,7,15)           179.9998         estimate D2E/DX2                !
 ! D22   D(13,5,7,9)          -179.9996         estimate D2E/DX2                !
 ! D23   D(13,5,7,15)            0.0002         estimate D2E/DX2                !
 ! D24   D(4,6,8,9)             -0.0002         estimate D2E/DX2                !
 ! D25   D(4,6,8,16)           179.9999         estimate D2E/DX2                !
 ! D26   D(14,6,8,9)           180.0            estimate D2E/DX2                !
 ! D27   D(14,6,8,16)            0.0001         estimate D2E/DX2                !
 ! D28   D(5,7,9,1)           -180.0            estimate D2E/DX2                !
 ! D29   D(5,7,9,8)              0.0002         estimate D2E/DX2                !
 ! D30   D(15,7,9,1)             0.0002         estimate D2E/DX2                !
 ! D31   D(15,7,9,8)          -179.9996         estimate D2E/DX2                !
 ! D32   D(6,8,9,1)           -179.9999         estimate D2E/DX2                !
 ! D33   D(6,8,9,7)             -0.0001         estimate D2E/DX2                !
 ! D34   D(16,8,9,1)            -0.0001         estimate D2E/DX2                !
 ! D35   D(16,8,9,7)           179.9997         estimate D2E/DX2                !
 ! D36   D(4,10,11,12)        -179.9995         estimate D2E/DX2                !
 ! D37   D(4,10,11,18)          -0.0005         estimate D2E/DX2                !
 ! D38   D(17,10,11,12)          0.0            estimate D2E/DX2                !
 ! D39   D(17,10,11,18)        179.999          estimate D2E/DX2                !
 ! D40   D(10,11,12,2)        -179.9982         estimate D2E/DX2                !
 ! D41   D(10,11,12,3)           0.0001         estimate D2E/DX2                !
 ! D42   D(18,11,12,2)           0.0027         estimate D2E/DX2                !
 ! D43   D(18,11,12,3)        -179.9989         estimate D2E/DX2                !
 --------------------------------------------------------------------------------
 Trust Radius=3.00D-01 FncErr=1.00D-07 GrdErr=1.00D-06
 Number of steps in this run= 138 maximum allowed number of steps= 138.
 GradGradGradGradGradGradGradGradGradGradGradGradGradGradGradGradGradGrad

                          Input orientation:                          
 ---------------------------------------------------------------------
 Center     Atomic      Atomic             Coordinates (Angstroms)
 Number     Number       Type             X           Y           Z
 ---------------------------------------------------------------------
      1          8           0        5.235738    0.617373   -0.000447
      2         16           0       -4.174003    0.235363    0.000321
      3          8           0       -2.823384   -1.994591    0.000309
      4          6           0        1.167585   -0.421726   -0.000102
      5          6           0        1.556377    0.940295   -0.000241
      6          6           0        2.197884   -1.395767   -0.000093
      7          6           0        2.899520    1.308740   -0.000357
      8          6           0        3.544975   -1.042769   -0.000206
      9          6           0        3.904328    0.318063   -0.000338
     10          6           0       -0.217686   -0.864653    0.000031
     11          6           0       -1.347603   -0.104838    0.000115
     12          6           0       -2.659346   -0.776722    0.000257
     13          1           0        0.794323    1.725075   -0.000265
     14          1           0        1.921170   -2.455092    0.000009
     15          1           0        3.179454    2.368794   -0.000467
     16          1           0        4.333758   -1.798955   -0.000197
     17          1           0       -0.378007   -1.951357    0.000077
     18          1           0       -1.307445    0.986861    0.000096
     19          1           0        5.334084    1.588162   -0.000531
     20          6           0       -3.653008    1.991377    0.000316
     21          1           0       -4.585845    2.575183    0.000443
     22          1           0       -3.082324    2.250658   -0.903768
     23          1           0       -3.082104    2.250606    0.904277
 ---------------------------------------------------------------------
                    Distance matrix (angstroms):
                    1          2          3          4          5
     1  O    0.000000
     2  S    9.417492   0.000000
     3  O    8.471824   2.607080   0.000000
     4  C    4.198761   5.381852   4.289725   0.000000
     5  C    3.693505   5.773576   5.272178   1.416425   0.000000
     6  C    3.644350   6.577350   5.056849   1.417841   2.422543
     7  C    2.436371   7.154500   6.607846   2.448287   1.392762
     8  C    2.369547   7.824081   6.439096   2.457169   2.808392
     9  C    1.364639   8.078754   7.114104   2.834969   2.429001
    10  C    5.651215   4.106395   2.840145   1.454359   2.530837
    11  C    6.622837   2.846801   2.397727   2.535072   3.086325
    12  C    8.017222   1.821676   1.228867   3.843361   4.551974
    13  H    4.577463   5.186859   5.188807   2.179009   1.093895
    14  H    4.519558   6.662558   4.766849   2.168517   3.414927
    15  H    2.701070   7.656687   7.421132   3.440148   2.162172
    16  H    2.579188   8.747597   7.159815   3.452740   3.900940
    17  H    6.173533   4.380791   2.445759   2.174540   3.479007
    18  H    6.553607   2.963428   3.344716   2.847787   2.864201
    19  H    0.975758   9.603842   8.909568   4.625945   3.832858
    20  C    8.994314   1.831672   4.071390   5.390843   5.314364
    21  H   10.014815   2.375789   4.897867   6.487174   6.356080
    22  H    8.524891   2.463849   4.348166   5.100978   4.904178
    23  H    8.524815   2.463856   4.348079   5.100894   4.904138
                    6          7          8          9         10
     6  C    0.000000
     7  C    2.794039   0.000000
     8  C    1.392574   2.438485   0.000000
     9  C    2.418505   1.411056   1.407479   0.000000
    10  C    2.473269   3.800080   3.766874   4.288335   0.000000
    11  C    3.773192   4.476188   4.981670   5.268930   1.361628
    12  C    4.896519   5.937183   6.210023   6.654350   2.443243
    13  H    3.421935   2.145970   3.902185   3.413475   2.780441
    14  H    1.094870   3.888907   2.152069   3.409297   2.665371
    15  H    3.890424   1.096393   3.431088   2.175072   4.689962
    16  H    2.173596   3.422690   1.092701   2.160133   4.646349
    17  H    2.635127   4.622815   4.026825   4.846510   1.098466
    18  H    4.238425   4.219261   5.259789   5.254509   2.148413
    19  H    4.328924   2.450547   3.181621   1.912421   6.069469
    20  C    6.760598   6.587990   7.811338   7.740369   4.467476
    21  H    7.860498   7.591743   8.899428   8.785080   5.559972
    22  H    6.480250   6.122566   7.455480   7.305095   4.327605
    23  H    6.480138   6.122524   7.455373   7.305018   4.327515
                   11         12         13         14         15
    11  C    0.000000
    12  C    1.473804   0.000000
    13  H    2.817167   4.264601   0.000000
    14  H    4.025987   4.878325   4.329386   0.000000
    15  H    5.158789   6.632183   2.470470   4.985294   0.000000
    16  H    5.928566   7.067423   4.994636   2.500219   4.324644
    17  H    2.085605   2.565984   3.858822   2.353713   5.596359
    18  H    1.092437   2.222130   2.227642   4.719216   4.694891
    19  H    6.892836   8.335922   4.541825   5.291114   2.291684
    20  C    3.115928   2.941043   4.455297   7.130396   6.842878
    21  H    4.203418   3.866092   5.446916   8.224653   7.768041
    22  H    3.061801   3.187664   4.015090   6.927904   6.327699
    23  H    3.061718   3.187584   4.015105   6.927773   6.327688
                   16         17         18         19         20
    16  H    0.000000
    17  H    4.714229   0.000000
    18  H    6.291577   3.081717   0.000000
    19  H    3.531744   6.719835   6.668693   0.000000
    20  C    8.840534   5.125503   2.551611   8.996133   0.000000
    21  H    9.934405   6.180248   3.642894   9.968912   1.100461
    22  H    8.497887   5.078110   2.358887   8.490622   1.100125
    23  H    8.497766   5.078013   2.358815   8.490567   1.100126
                   21         22         23
    21  H    0.000000
    22  H    1.784234   0.000000
    23  H    1.784237   1.808045   0.000000
 Symmetry turned off by external request.
 Stoichiometry    C10H10O2S
 Framework group  C1[X(C10H10O2S)]
 Deg. of freedom    63
 Full point group                 C1      NOp   1
 Rotational constants (GHZ):      2.0237450      0.2483954      0.2215598
 Standard basis: 6-31G(d,p) (6D, 7F)
 Integral buffers will be    131072 words long.
 Raffenetti 2 integral format.
 Two-electron integral symmetry is turned off.
   249 basis functions,   458 primitive gaussians,   249 cartesian basis functions
    51 alpha electrons       51 beta electrons
       nuclear repulsion energy       780.0402245594 Hartrees.
 NAtoms=   23 NActive=   23 NUniq=   23 SFac= 7.50D-01 NAtFMM=   80 NAOKFM=F Big=F
 Standard density basis: Auto (5D, 7F)
  1160 Density fitting functions
 ------------------------------------------------------------------------------
 Polarizable Continuum Model (PCM)
 =================================
 Model                : PCM.
 Atomic radii         : UFF (Universal Force Field).
 Polarization charges : Total charges.
 Charge compensation  : None.
 Solution method      : Matrix inversion.
 Cavity type          : Scaled VdW (van der Waals Surface) (Alpha=1.100).
 Cavity algorithm     : GePol (No added spheres)
                        Default sphere list used, NSphG=   23.
                        Lebedev-Laikov grids with approx.  5.0 points / Ang**2.
                        Smoothing algorithm: Karplus/York (Gamma=1.0000).
                        Polarization charges: spherical gaussians, with
                                              point-specific exponents (IZeta= 3).
                        Self-potential: point-specific (ISelfS= 7).
                        Self-field    : sphere-specific E.n sum rule (ISelfD= 2).
 1st derivatives      : Analytical E(r).r(x)/FMM algorithm (CHGder, D1EAlg=3).
                        Cavity 1st derivative terms included.
 Solvent              : Water, Eps=  78.355300 Eps(inf)=   1.777849
 ------------------------------------------------------------------------------
 One-electron integrals computed using PRISM.
 NBasis=   249 RedAO= T  NBF=   249
 NBsUse=   249 1.00D-06 NBFU=   249
 NBasis=      249 NBas6D=      249 NTT=       31125   NTT6D=    31125
 NDBShl=      198 NDBF=       1160 NDBF6D=     1341  NNucDB=        0
 IDenFi=        2 ISolve=        0 FullAP=F BlkAPC=T NucTyp=        0
 TolInv= 1.00D-05 TolIt=  1.00D-10 IR12=0.
 Symmetry not used in FoFDir.
 MinBra= 0 MaxBra= 3 Meth= 1.
 IRaf=       0 NMat=   1 IRICut=       1 DoRegI=T DoRafI=F ISym2E= 0 JSym2E=0.
  NDBF=  1160  NBFD=  1160
 NRank=  1154 NBFDU=  1154
 S*AI*S=  8.53239645329    
 Harris functional with IExCor= 1009 diagonalized for initial guess.
 ExpMin= 1.17D-01 ExpMax= 2.19D+04 ExpMxC= 3.30D+03 IAcc=1 IRadAn=         1 AccDes= 0.00D+00
 HarFok:  IExCor= 1009 AccDes= 0.00D+00 IRadAn=         1 IDoV= 1
 ScaDFX=  1.000000  1.000000  1.000000  1.000000
 FoFCou: FMM=F IPFlag=           0 FMFlag=      100000 FMFlg1=           0
         NFxFlg=           0 DoJE=T BraDBF=F KetDBF=T FulRan=T
         Omega=  0.000000  0.000000  1.000000  0.000000  0.000000 ICntrl=     500 IOpCl=  0
         NMat0=    1 NMatS0=    1 NMatT0=    0 NMatD0=    1 NMtDS0=    0 NMtDT0=    0
         I1Cent=           4 NGrid=           0.
 Symmetry not used in FoFCou.
 Requested convergence on RMS density matrix=1.00D-08 within 128 cycles.
 Requested convergence on MAX density matrix=1.00D-06.
 Requested convergence on             energy=1.00D-06.
 No special actions if energy rises.
 FoFCou: FMM=F IPFlag=           0 FMFlag=      100000 FMFlg1=           0
         NFxFlg=           0 DoJE=T BraDBF=T KetDBF=F FulRan=T
         Omega=  0.000000  0.000000  1.000000  0.000000  0.000000 ICntrl=     500 IOpCl=  0
         NMat0=    1 NMatS0=    1 NMatT0=    0 NMatD0=    1 NMtDS0=    0 NMtDT0=    0
         I1Cent=           5 NGrid=           0.
 Symmetry not used in FoFCou.
 EnCoef did   100 forward-backward iterations
 Error on total polarization charges =  0.01023
 SCF Done:  E(RPBE-PBE) =  -934.905414954     A.U. after   14 cycles
             Convg  =    0.9543D-08             -V/T =  2.0070

 **********************************************************************

            Population analysis using the SCF density.

 **********************************************************************

 Alpha  occ. eigenvalues --  -88.07613 -18.81836 -18.76424 -10.00170  -9.97650
 Alpha  occ. eigenvalues --   -9.92908  -9.92655  -9.92040  -9.91904  -9.91759
 Alpha  occ. eigenvalues --   -9.91491  -9.91259  -9.91025  -7.68598  -5.70980
 Alpha  occ. eigenvalues --   -5.70478  -5.69913  -0.98173  -0.94925  -0.78688
 Alpha  occ. eigenvalues --   -0.73281  -0.71609  -0.68576  -0.66886  -0.60906
 Alpha  occ. eigenvalues --   -0.57823  -0.56778  -0.52520  -0.49741  -0.46875
 Alpha  occ. eigenvalues --   -0.45276  -0.42422  -0.40964  -0.39966  -0.38568
 Alpha  occ. eigenvalues --   -0.38460  -0.37853  -0.37074  -0.35884  -0.35635
 Alpha  occ. eigenvalues --   -0.34747  -0.34109  -0.32085  -0.31771  -0.29769
 Alpha  occ. eigenvalues --   -0.29329  -0.25489  -0.23634  -0.21489  -0.21487
 Alpha  occ. eigenvalues --   -0.19461
 Alpha virt. eigenvalues --   -0.09787  -0.04304  -0.01658   0.00527   0.04099
 Alpha virt. eigenvalues --    0.04243   0.05132   0.06569   0.07779   0.10648
 Alpha virt. eigenvalues --    0.10838   0.12007   0.12746   0.12833   0.14167
 Alpha virt. eigenvalues --    0.15344   0.18506   0.19370   0.22402   0.23432
 Alpha virt. eigenvalues --    0.24881   0.26069   0.28742   0.29184   0.31467
 Alpha virt. eigenvalues --    0.32519   0.34775   0.35855   0.37158   0.40104
 Alpha virt. eigenvalues --    0.46052   0.46228   0.46767   0.47508   0.47902
 Alpha virt. eigenvalues --    0.49366   0.50575   0.52305   0.53585   0.53764
 Alpha virt. eigenvalues --    0.53982   0.54084   0.54934   0.55172   0.56954
 Alpha virt. eigenvalues --    0.58124   0.59188   0.60465   0.60572   0.64979
 Alpha virt. eigenvalues --    0.66198   0.66347   0.68115   0.72431   0.72551
 Alpha virt. eigenvalues --    0.73406   0.74789   0.76148   0.77042   0.78576
 Alpha virt. eigenvalues --    0.78626   0.80164   0.81152   0.81460   0.82473
 Alpha virt. eigenvalues --    0.82542   0.84877   0.85532   0.87386   0.88981
 Alpha virt. eigenvalues --    0.89568   0.90463   0.91126   0.92013   0.95098
 Alpha virt. eigenvalues --    0.96386   0.96999   0.99349   1.02044   1.04011
 Alpha virt. eigenvalues --    1.06831   1.10176   1.11371   1.12876   1.13967
 Alpha virt. eigenvalues --    1.16490   1.18483   1.20395   1.23962   1.25050
 Alpha virt. eigenvalues --    1.25673   1.28013   1.31578   1.31625   1.32150
 Alpha virt. eigenvalues --    1.32934   1.35476   1.37130   1.38259   1.40655
 Alpha virt. eigenvalues --    1.42038   1.49199   1.49635   1.50859   1.58391
 Alpha virt. eigenvalues --    1.61909   1.66434   1.66581   1.69630   1.70112
 Alpha virt. eigenvalues --    1.70895   1.77018   1.77169   1.78612   1.80572
 Alpha virt. eigenvalues --    1.82757   1.83437   1.84144   1.86945   1.87640
 Alpha virt. eigenvalues --    1.87933   1.92105   1.93177   1.94543   1.96258
 Alpha virt. eigenvalues --    1.97199   1.97213   1.98914   2.01959   2.04571
 Alpha virt. eigenvalues --    2.07807   2.08120   2.11459   2.14997   2.18663
 Alpha virt. eigenvalues --    2.19521   2.23103   2.23408   2.24777   2.26589
 Alpha virt. eigenvalues --    2.26619   2.29833   2.31559   2.32320   2.38214
 Alpha virt. eigenvalues --    2.38667   2.39605   2.40526   2.40878   2.42295
 Alpha virt. eigenvalues --    2.44884   2.48158   2.50598   2.51853   2.52484
 Alpha virt. eigenvalues --    2.53943   2.55417   2.55499   2.58713   2.60911
 Alpha virt. eigenvalues --    2.64372   2.67246   2.69672   2.71327   2.72610
 Alpha virt. eigenvalues --    2.73941   2.78722   2.80540   2.84688   2.87924
 Alpha virt. eigenvalues --    2.90250   2.95592   3.01946   3.06273   3.08871
 Alpha virt. eigenvalues --    3.15157   3.20868   3.25282   3.30540   3.33367
 Alpha virt. eigenvalues --    3.34337   3.39770   3.40736   3.46545   3.72993
 Alpha virt. eigenvalues --    3.83815   3.89397   3.94659   4.00980   4.06538
 Alpha virt. eigenvalues --    4.09028   4.16563   4.23321   4.33052   4.33158
 Alpha virt. eigenvalues --    4.35050   4.49219   4.75081
          Condensed to atoms (all electrons):
              1          2          3          4          5          6
     1  O    8.061307   0.000000   0.000000   0.000112   0.004955   0.003283
     2  S    0.000000  15.715204  -0.059663   0.000108   0.000004  -0.000001
     3  O    0.000000  -0.059663   8.075641   0.001372   0.000001  -0.000032
     4  C    0.000112   0.000108   0.001372   4.765291   0.501737   0.479684
     5  C    0.004955   0.000004   0.000001   0.501737   5.006685  -0.054480
     6  C    0.003283  -0.000001  -0.000032   0.479684  -0.054480   4.999604
     7  C   -0.059627   0.000000   0.000000  -0.022426   0.453345  -0.044897
     8  C   -0.055522   0.000000   0.000000  -0.024896  -0.037891   0.487758
     9  C    0.280914   0.000000   0.000000  -0.032516  -0.008800  -0.019574
    10  C   -0.000001   0.009252   0.000019   0.363210  -0.060559  -0.037755
    11  C    0.000000  -0.106607  -0.086496  -0.034221  -0.013668   0.007630
    12  C    0.000000   0.267475   0.509343   0.006284   0.000243  -0.000245
    13  H   -0.000051   0.000056   0.000002  -0.036908   0.362517   0.005914
    14  H   -0.000056   0.000000   0.000000  -0.044867   0.005935   0.368978
    15  H   -0.006015   0.000000   0.000000   0.003382  -0.028696   0.000609
    16  H   -0.001140   0.000000   0.000000   0.003935   0.000133  -0.032262
    17  H    0.000000   0.001039   0.019893  -0.029056   0.006129  -0.010254
    18  H    0.000000  -0.003860   0.002730  -0.008900   0.002820   0.000114
    19  H    0.294945   0.000000   0.000000  -0.000034   0.000687  -0.000179
    20  C    0.000000   0.207184   0.001399  -0.000017  -0.000010   0.000000
    21  H    0.000000  -0.027077  -0.000020   0.000000   0.000000   0.000000
    22  H    0.000000  -0.041299   0.000029   0.000000  -0.000006   0.000000
    23  H    0.000000  -0.041297   0.000029   0.000000  -0.000006   0.000000
              7          8          9         10         11         12
     1  O   -0.059627  -0.055522   0.280914  -0.000001   0.000000   0.000000
     2  S    0.000000   0.000000   0.000000   0.009252  -0.106607   0.267475
     3  O    0.000000   0.000000   0.000000   0.000019  -0.086496   0.509343
     4  C   -0.022426  -0.024896  -0.032516   0.363210  -0.034221   0.006284
     5  C    0.453345  -0.037891  -0.008800  -0.060559  -0.013668   0.000243
     6  C   -0.044897   0.487758  -0.019574  -0.037755   0.007630  -0.000245
     7  C    5.075913  -0.058689   0.470496   0.008186   0.000102  -0.000003
     8  C   -0.058689   4.968021   0.510014   0.007171  -0.000315   0.000001
     9  C    0.470496   0.510014   4.599121   0.000368   0.000018   0.000000
    10  C    0.008186   0.007171   0.000368   5.054713   0.475352  -0.007620
    11  C    0.000102  -0.000315   0.000018   0.475352   5.293692   0.307701
    12  C   -0.000003   0.000001   0.000000  -0.007620   0.307701   4.783652
    13  H   -0.035976   0.000305   0.003696  -0.013275   0.004425   0.000044
    14  H    0.000248  -0.038912   0.004717  -0.009624   0.000252  -0.000007
    15  H    0.362555   0.004616  -0.042466  -0.000174   0.000004   0.000000
    16  H    0.006443   0.359581  -0.040166  -0.000142   0.000002   0.000000
    17  H   -0.000165   0.000242   0.000000   0.362607  -0.074041  -0.009957
    18  H    0.000030   0.000006  -0.000006  -0.043495   0.366365  -0.037479
    19  H   -0.005379   0.006009  -0.033041  -0.000001   0.000000   0.000000
    20  C    0.000000   0.000000   0.000000  -0.000031   0.002866  -0.009836
    21  H    0.000000   0.000000   0.000000   0.000002   0.000095   0.001541
    22  H    0.000000   0.000000   0.000000  -0.000057   0.000803  -0.003108
    23  H    0.000000   0.000000   0.000000  -0.000058   0.000803  -0.003109
             13         14         15         16         17         18
     1  O   -0.000051  -0.000056  -0.006015  -0.001140   0.000000   0.000000
     2  S    0.000056   0.000000   0.000000   0.000000   0.001039  -0.003860
     3  O    0.000002   0.000000   0.000000   0.000000   0.019893   0.002730
     4  C   -0.036908  -0.044867   0.003382   0.003935  -0.029056  -0.008900
     5  C    0.362517   0.005935  -0.028696   0.000133   0.006129   0.002820
     6  C    0.005914   0.368978   0.000609  -0.032262  -0.010254   0.000114
     7  C   -0.035976   0.000248   0.362555   0.006443  -0.000165   0.000030
     8  C    0.000305  -0.038912   0.004616   0.359581   0.000242   0.000006
     9  C    0.003696   0.004717  -0.042466  -0.040166   0.000000  -0.000006
    10  C   -0.013275  -0.009624  -0.000174  -0.000142   0.362607  -0.043495
    11  C    0.004425   0.000252   0.000004   0.000002  -0.074041   0.366365
    12  C    0.000044  -0.000007   0.000000   0.000000  -0.009957  -0.037479
    13  H    0.584715  -0.000165  -0.006008   0.000014   0.000030   0.004100
    14  H   -0.000165   0.586697   0.000013  -0.006491   0.006795   0.000006
    15  H   -0.006008   0.000013   0.573551  -0.000155   0.000002   0.000005
    16  H    0.000014  -0.006491  -0.000155   0.583370  -0.000008   0.000000
    17  H    0.000030   0.006795   0.000002  -0.000008   0.593444   0.005517
    18  H    0.004100   0.000006   0.000005   0.000000   0.005517   0.583078
    19  H   -0.000014   0.000005   0.005746  -0.000301   0.000000   0.000000
    20  C   -0.000022   0.000000   0.000000   0.000000  -0.000025   0.000760
    21  H    0.000000   0.000000   0.000000   0.000000   0.000000   0.000148
    22  H    0.000005   0.000000   0.000000   0.000000  -0.000004   0.001708
    23  H    0.000005   0.000000   0.000000   0.000000  -0.000004   0.001708
             19         20         21         22         23
     1  O    0.294945   0.000000   0.000000   0.000000   0.000000
     2  S    0.000000   0.207184  -0.027077  -0.041299  -0.041297
     3  O    0.000000   0.001399  -0.000020   0.000029   0.000029
     4  C   -0.000034  -0.000017   0.000000   0.000000   0.000000
     5  C    0.000687  -0.000010   0.000000  -0.000006  -0.000006
     6  C   -0.000179   0.000000   0.000000   0.000000   0.000000
     7  C   -0.005379   0.000000   0.000000   0.000000   0.000000
     8  C    0.006009   0.000000   0.000000   0.000000   0.000000
     9  C   -0.033041   0.000000   0.000000   0.000000   0.000000
    10  C   -0.000001  -0.000031   0.000002  -0.000057  -0.000058
    11  C    0.000000   0.002866   0.000095   0.000803   0.000803
    12  C    0.000000  -0.009836   0.001541  -0.003108  -0.003109
    13  H   -0.000014  -0.000022   0.000000   0.000005   0.000005
    14  H    0.000005   0.000000   0.000000   0.000000   0.000000
    15  H    0.005746   0.000000   0.000000   0.000000   0.000000
    16  H   -0.000301   0.000000   0.000000   0.000000   0.000000
    17  H    0.000000  -0.000025   0.000000  -0.000004  -0.000004
    18  H    0.000000   0.000760   0.000148   0.001708   0.001708
    19  H    0.382399   0.000000   0.000000   0.000000   0.000000
    20  C    0.000000   5.209636   0.372270   0.379627   0.379628
    21  H    0.000000   0.372270   0.514047  -0.022989  -0.022988
    22  H    0.000000   0.379627  -0.022989   0.533234  -0.030878
    23  H    0.000000   0.379628  -0.022988  -0.030878   0.533232
 Mulliken atomic charges:
              1
     1  O   -0.523104
     2  S    0.079481
     3  O   -0.464245
     4  C    0.108726
     5  C   -0.141075
     6  C   -0.153893
     7  C   -0.150156
     8  C   -0.127498
     9  C    0.307224
    10  C   -0.108087
    11  C   -0.144762
    12  C    0.195082
    13  H    0.126594
    14  H    0.126475
    15  H    0.133030
    16  H    0.127185
    17  H    0.127814
    18  H    0.124644
    19  H    0.349158
    20  C   -0.543430
    21  H    0.184970
    22  H    0.182934
    23  H    0.182934
 Sum of Mulliken atomic charges =   0.00000
 Mulliken charges with hydrogens summed into heavy atoms:
              1
     1  O   -0.173946
     2  S    0.079481
     3  O   -0.464245
     4  C    0.108726
     5  C   -0.014481
     6  C   -0.027418
     7  C   -0.017127
     8  C   -0.000313
     9  C    0.307224
    10  C    0.019727
    11  C   -0.020118
    12  C    0.195082
    20  C    0.007409
 Sum of Mulliken charges with hydrogens summed into heavy atoms =   0.00000
 Electronic spatial extent (au):  <R**2>=           4519.0353
 Charge=              0.0000 electrons
 Dipole moment (field-independent basis, Debye):
    X=              5.9581    Y=              6.6125    Z=             -0.0007  Tot=              8.9008
 Quadrupole moment (field-independent basis, Debye-Ang):
   XX=            -85.2541   YY=            -72.0573   ZZ=            -85.9540
   XY=             -6.7680   XZ=             -0.0006   YZ=             -0.0002
 Traceless Quadrupole moment (field-independent basis, Debye-Ang):
   XX=             -4.1656   YY=              9.0312   ZZ=             -4.8656
   XY=             -6.7680   XZ=             -0.0006   YZ=             -0.0002
 Octapole moment (field-independent basis, Debye-Ang**2):
  XXX=            116.2811  YYY=             30.1375  ZZZ=              0.0006  XYY=             40.5169
  XXY=            105.6798  XXZ=             -0.0138  XZZ=             -0.8836  YZZ=              1.2241
  YYZ=             -0.0044  XYZ=             -0.0129
 Hexadecapole moment (field-independent basis, Debye-Ang**3):
 XXXX=          -5080.2944 YYYY=           -699.9173 ZZZZ=            -95.3476 XXXY=             96.0248
 XXXZ=              0.1840 YYYX=            -11.3878 YYYZ=              0.0106 ZZZX=              0.2195
 ZZZY=              0.0121 XXYY=           -763.6399 XXZZ=           -898.1054 YYZZ=           -141.5340
 XXYZ=             -0.0128 YYXZ=              0.0523 ZZXY=              9.7955
 N-N= 7.800402245594D+02 E-N=-3.756377209367D+03  KE= 9.284394572424D+02
 D1PCM: PCM CHGder 1st derivatives, ID1Alg=3 FixD1E=F DoIter=F DoCFld=F I1PDM=0.
 Calling FoFJK, ICntrl=      2527 FMM=F ISym2X=0 I1Cent= 4 IOpClX= 0 NMat=1 NMatS=1 NMatT=0.
 -------------------------------------------------------------------
 Center     Atomic                   Forces (Hartrees/Bohr)
 Number     Number              X              Y              Z
 -------------------------------------------------------------------
      1        8          -0.003614596   -0.001581979    0.000000412
      2       16           0.001427701    0.000782667    0.000001422
      3        8          -0.002716179   -0.008448630    0.000000798
      4        6          -0.001477531   -0.001131218   -0.000000247
      5        6           0.000018107    0.001692749   -0.000000049
      6        6           0.000229518   -0.001966099   -0.000000163
      7        6          -0.001183915    0.002341854    0.000000040
      8        6          -0.000225171   -0.001081048    0.000000077
      9        6           0.003256178    0.000609500   -0.000000093
     10        6           0.003139280   -0.001395748    0.000000143
     11        6          -0.005092436    0.001894797    0.000001710
     12        6           0.005328147    0.009084201   -0.000002968
     13        1           0.000388478    0.000242032    0.000000037
     14        1           0.000233929   -0.000128723   -0.000000005
     15        1          -0.000278131   -0.000721020    0.000000165
     16        1          -0.000235547   -0.000482995    0.000000105
     17        1           0.001074534   -0.000249472    0.000000092
     18        1          -0.000296195   -0.000454770   -0.000000443
     19        1           0.001068620    0.001542840   -0.000000459
     20        6          -0.000382445    0.001762037   -0.000000801
     21        1          -0.000076221   -0.000398760    0.000000324
     22        1          -0.000292484   -0.000955872    0.000307513
     23        1          -0.000293639   -0.000956342   -0.000307611
 -------------------------------------------------------------------
 Cartesian Forces:  Max     0.009084201 RMS     0.002051319

 GradGradGradGradGradGradGradGradGradGradGradGradGradGradGradGradGradGrad
 Berny optimization.
 Internal  Forces:  Max     0.008737109 RMS     0.001219162
 Search for a local minimum.
 Step number   1 out of a maximum of  138
 All quantities printed in internal units (Hartrees-Bohrs-Radians)
 Mixed Optimization -- RFO/linear search
 Second derivative matrix not updated -- first step.
     Eigenvalues ---    0.00230   0.00230   0.00852   0.01112   0.01370
     Eigenvalues ---    0.01717   0.01874   0.01891   0.01979   0.01980
     Eigenvalues ---    0.01996   0.02016   0.02047   0.02062   0.02098
     Eigenvalues ---    0.02107   0.02160   0.02596   0.09378   0.10271
     Eigenvalues ---    0.16000   0.16000   0.16000   0.16000   0.16000
     Eigenvalues ---    0.16000   0.16000   0.16000   0.16000   0.16000
     Eigenvalues ---    0.22000   0.22000   0.22000   0.22957   0.23773
     Eigenvalues ---    0.24000   0.24481   0.25000   0.25000   0.25000
     Eigenvalues ---    0.25000   0.25000   0.33631   0.33668   0.33668
     Eigenvalues ---    0.33852   0.34084   0.34256   0.34366   0.34502
     Eigenvalues ---    0.34532   0.35289   0.37680   0.40054   0.40858
     Eigenvalues ---    0.43362   0.43771   0.45284   0.46858   0.52021
     Eigenvalues ---    0.52218   0.52620   0.915601000.000001000.00000
     Eigenvalues --- 1000.000001000.000001000.000001000.000001000.00000
     Eigenvalues --- 1000.000001000.000001000.000001000.000001000.00000
     Eigenvalues --- 1000.000001000.000001000.000001000.000001000.00000
     Eigenvalues --- 1000.000001000.000001000.000001000.000001000.00000
     Eigenvalues --- 1000.000001000.000001000.000001000.000001000.00000
     Eigenvalues --- 1000.000001000.000001000.000001000.000001000.00000
     Eigenvalues --- 1000.000001000.000001000.000001000.000001000.00000
     Eigenvalues --- 1000.00000
 RFO step:  Lambda=-3.25639833D-04 EMin= 2.30000000D-03
 Linear search not attempted -- first point.
 Iteration  1 RMS(Cart)=  0.00879093 RMS(Int)=  0.00002632
 Iteration  2 RMS(Cart)=  0.00003924 RMS(Int)=  0.00000467
 Iteration  3 RMS(Cart)=  0.00000000 RMS(Int)=  0.00000467
 Variable       Old X    -DE/DX   Delta X   Delta X   Delta X     New X
                                 (Linear)    (Quad)   (Total)
    R1        2.57879  -0.00249   0.00000  -0.00479  -0.00479   2.57401
    R2        1.84391   0.00165   0.00000   0.00315   0.00315   1.84706
    R3        3.44247  -0.00019   0.00000  -0.00078  -0.00078   3.44169
    R4        3.46136  -0.00083   0.00000  -0.00350  -0.00350   3.45786
    R5        2.32222   0.00874   0.00000   0.00954   0.00954   2.33176
    R6        2.67666   0.00188   0.00000   0.00434   0.00434   2.68100
    R7        2.67933   0.00108   0.00000   0.00252   0.00252   2.68185
    R8        2.74834  -0.00193   0.00000  -0.00512  -0.00512   2.74322
    R9        2.63194  -0.00069   0.00000  -0.00149  -0.00149   2.63045
   R10        2.06716  -0.00010   0.00000  -0.00028  -0.00028   2.06688
   R11        2.63158  -0.00032   0.00000  -0.00066  -0.00066   2.63093
   R12        2.06900   0.00006   0.00000   0.00019   0.00019   2.06919
   R13        2.66651   0.00156   0.00000   0.00357   0.00357   2.67008
   R14        2.07188  -0.00077   0.00000  -0.00225  -0.00225   2.06963
   R15        2.65975   0.00201   0.00000   0.00455   0.00455   2.66430
   R16        2.06491   0.00016   0.00000   0.00047   0.00047   2.06538
   R17        2.57310   0.00327   0.00000   0.00621   0.00621   2.57931
   R18        2.07580   0.00009   0.00000   0.00027   0.00027   2.07607
   R19        2.78509  -0.00305   0.00000  -0.00864  -0.00864   2.77644
   R20        2.06441  -0.00047   0.00000  -0.00135  -0.00135   2.06306
   R21        2.07957  -0.00015   0.00000  -0.00044  -0.00044   2.07913
   R22        2.07893  -0.00063   0.00000  -0.00187  -0.00187   2.07706
   R23        2.07894  -0.00063   0.00000  -0.00187  -0.00187   2.07706
    A1        1.89289   0.00167   0.00000   0.01043   0.01043   1.90332
    A2        1.87144   0.00195   0.00000   0.00778   0.00778   1.87921
    A3        2.05008   0.00103   0.00000   0.00417   0.00417   2.05425
    A4        2.15832  -0.00058   0.00000  -0.00235  -0.00235   2.15597
    A5        2.07479  -0.00045   0.00000  -0.00182  -0.00182   2.07297
    A6        2.11658  -0.00022   0.00000  -0.00093  -0.00093   2.11565
    A7        2.09283   0.00057   0.00000   0.00335   0.00335   2.09618
    A8        2.07377  -0.00035   0.00000  -0.00241  -0.00241   2.07136
    A9        2.12797  -0.00087   0.00000  -0.00380  -0.00380   2.12417
   A10        2.07263   0.00070   0.00000   0.00358   0.00358   2.07620
   A11        2.08259   0.00017   0.00000   0.00022   0.00022   2.08281
   A12        2.09555  -0.00052   0.00000  -0.00223  -0.00223   2.09331
   A13        2.09671   0.00017   0.00000   0.00056   0.00056   2.09727
   A14        2.09093   0.00035   0.00000   0.00167   0.00167   2.09260
   A15        2.08525   0.00005   0.00000   0.00045   0.00045   2.08570
   A16        2.12101  -0.00055   0.00000  -0.00350  -0.00350   2.11750
   A17        2.07692   0.00050   0.00000   0.00306   0.00306   2.07998
   A18        2.14215  -0.00011   0.00000  -0.00054  -0.00054   2.14160
   A19        2.05010  -0.00043   0.00000  -0.00181  -0.00181   2.04829
   A20        2.09094   0.00054   0.00000   0.00235   0.00235   2.09329
   A21        2.24013  -0.00073   0.00000  -0.00333  -0.00333   2.23680
   A22        2.02674  -0.00078   0.00000  -0.00546  -0.00546   2.02128
   A23        2.01632   0.00151   0.00000   0.00879   0.00879   2.02511
   A24        2.07623   0.00072   0.00000   0.00326   0.00326   2.07949
   A25        2.12603  -0.00007   0.00000   0.00017   0.00017   2.12620
   A26        2.08093  -0.00065   0.00000  -0.00343  -0.00343   2.07750
   A27        2.02597  -0.00140   0.00000  -0.00561  -0.00561   2.02036
   A28        2.07917  -0.00082   0.00000  -0.00328  -0.00328   2.07589
   A29        2.17805   0.00222   0.00000   0.00889   0.00889   2.18693
   A30        1.84158  -0.00010   0.00000   0.00009   0.00009   1.84167
   A31        1.95358  -0.00098   0.00000  -0.00649  -0.00650   1.94707
   A32        1.95358  -0.00098   0.00000  -0.00650  -0.00651   1.94707
   A33        1.89103   0.00069   0.00000   0.00504   0.00503   1.89607
   A34        1.89104   0.00069   0.00000   0.00503   0.00503   1.89606
   A35        1.92893   0.00075   0.00000   0.00348   0.00345   1.93238
    D1        0.00000   0.00000   0.00000  -0.00001  -0.00001  -0.00001
    D2       -3.14159   0.00000   0.00000  -0.00001  -0.00001   3.14158
    D3        3.14154   0.00000   0.00000   0.00009   0.00009  -3.14155
    D4       -0.00008   0.00000   0.00000   0.00018   0.00018   0.00010
    D5       -3.14151   0.00000   0.00000  -0.00010  -0.00010   3.14158
    D6        1.08842  -0.00025   0.00000  -0.00279  -0.00277   1.08565
    D7       -1.08825   0.00025   0.00000   0.00258   0.00256  -1.08568
    D8       -0.00001   0.00000   0.00000   0.00000   0.00000   0.00000
    D9        3.14158   0.00000   0.00000   0.00000   0.00000   3.14158
   D10        3.14159   0.00000   0.00000   0.00000   0.00000   3.14159
   D11       -0.00001   0.00000   0.00000   0.00000   0.00000  -0.00001
   D12        0.00001   0.00000   0.00000   0.00000   0.00000   0.00001
   D13       -3.14159   0.00000   0.00000   0.00000   0.00000  -3.14159
   D14       -3.14158   0.00000   0.00000   0.00000   0.00000  -3.14158
   D15        0.00001   0.00000   0.00000   0.00000   0.00000   0.00000
   D16       -0.00006   0.00000   0.00000   0.00003   0.00003  -0.00004
   D17        3.14154   0.00000   0.00000   0.00002   0.00002   3.14155
   D18        3.14153   0.00000   0.00000   0.00002   0.00002   3.14155
   D19       -0.00006   0.00000   0.00000   0.00001   0.00001  -0.00004
   D20        0.00000   0.00000   0.00000   0.00000   0.00000   0.00000
   D21        3.14159   0.00000   0.00000   0.00000   0.00000   3.14159
   D22       -3.14159   0.00000   0.00000   0.00000   0.00000  -3.14159
   D23        0.00000   0.00000   0.00000   0.00000   0.00000   0.00000
   D24        0.00000   0.00000   0.00000   0.00000   0.00000   0.00000
   D25        3.14159   0.00000   0.00000   0.00000   0.00000   3.14159
   D26        3.14159   0.00000   0.00000   0.00000   0.00000   3.14159
   D27        0.00000   0.00000   0.00000   0.00000   0.00000   0.00000
   D28       -3.14159   0.00000   0.00000  -0.00001  -0.00001   3.14158
   D29        0.00000   0.00000   0.00000   0.00000   0.00000   0.00000
   D30        0.00000   0.00000   0.00000  -0.00001  -0.00001   0.00000
   D31       -3.14159   0.00000   0.00000   0.00000   0.00000  -3.14159
   D32       -3.14159   0.00000   0.00000   0.00001   0.00001  -3.14158
   D33        0.00000   0.00000   0.00000   0.00000   0.00000   0.00000
   D34        0.00000   0.00000   0.00000   0.00001   0.00001   0.00000
   D35        3.14159   0.00000   0.00000   0.00000   0.00000   3.14159
   D36       -3.14158   0.00000   0.00000  -0.00002  -0.00002   3.14158
   D37       -0.00001   0.00000   0.00000   0.00000   0.00000  -0.00001
   D38        0.00000   0.00000   0.00000  -0.00001  -0.00001  -0.00001
   D39        3.14158   0.00000   0.00000   0.00001   0.00001   3.14159
   D40       -3.14156   0.00000   0.00000  -0.00005  -0.00005   3.14157
   D41        0.00000   0.00000   0.00000   0.00005   0.00005   0.00005
   D42        0.00005   0.00000   0.00000  -0.00007  -0.00007  -0.00002
   D43       -3.14157   0.00000   0.00000   0.00003   0.00003  -3.14155
         Item               Value     Threshold  Converged?
 Maximum Force            0.008737     0.000450     NO 
 RMS     Force            0.001219     0.000300     NO 
 Maximum Displacement     0.026014     0.001800     NO 
 RMS     Displacement     0.008800     0.001200     NO 
 Predicted change in Energy=-1.629761D-04
 GradGradGradGradGradGradGradGradGradGradGradGradGradGradGradGradGradGrad

                          Input orientation:                          
 ---------------------------------------------------------------------
 Center     Atomic      Atomic             Coordinates (Angstroms)
 Number     Number       Type             X           Y           Z
 ---------------------------------------------------------------------
      1          8           0        5.226378    0.624513   -0.000473
      2         16           0       -4.164137    0.246030    0.000454
      3          8           0       -2.837150   -1.997151    0.000342
      4          6           0        1.166893   -0.427801   -0.000087
      5          6           0        1.549253    0.938427   -0.000178
      6          6           0        2.199138   -1.401722   -0.000133
      7          6           0        2.890061    1.312352   -0.000303
      8          6           0        3.544182   -1.042347   -0.000256
      9          6           0        3.898207    0.322371   -0.000343
     10          6           0       -0.214543   -0.873810    0.000052
     11          6           0       -1.346800   -0.111588    0.000160
     12          6           0       -2.656983   -0.776460    0.000280
     13          1           0        0.785870    1.721708   -0.000155
     14          1           0        1.927256   -2.462400   -0.000067
     15          1           0        3.165790    2.372278   -0.000375
     16          1           0        4.334129   -1.797680   -0.000290
     17          1           0       -0.365875   -1.961944    0.000073
     18          1           0       -1.306303    0.979384    0.000156
     19          1           0        5.332550    1.596154   -0.000534
     20          6           0       -3.644963    2.000653    0.000255
     21          1           0       -4.577983    2.583730    0.000352
     22          1           0       -3.073397    2.252628   -0.904133
     23          1           0       -3.073135    2.252752    0.904442
 ---------------------------------------------------------------------
                    Distance matrix (angstroms):
                    1          2          3          4          5
     1  O    0.000000
     2  S    9.398139   0.000000
     3  O    8.479010   2.606291   0.000000
     4  C    4.193660   5.373447   4.300607   0.000000
     5  C    3.690501   5.755192   5.278082   1.418724   0.000000
     6  C    3.642775   6.573154   5.071364   1.419173   2.428713
     7  C    2.435468   7.134336   6.614662   2.448967   1.391972
     8  C    2.368165   7.815248   6.452368   2.455436   2.811264
     9  C    1.362105   8.062705   7.123567   2.832460   2.428397
    10  C    5.643456   4.105281   2.853062   1.451651   2.528869
    11  C    6.614266   2.839943   2.403433   2.533504   3.080528
    12  C    8.006879   1.821263   1.233915   3.839739   4.542385
    13  H    4.574051   5.165288   5.191935   2.183018   1.093747
    14  H    4.518101   6.666383   4.787068   2.172036   3.421770
    15  H    2.701982   7.632088   7.424769   3.440354   2.160815
    16  H    2.581303   8.740553   7.174053   3.450789   3.904077
    17  H    6.161417   4.393398   2.471526   2.168634   3.475610
    18  H    6.542313   2.950428   3.347126   2.845500   2.855849
    19  H    0.977424   9.592179   8.925012   4.631316   3.840044
    20  C    8.977442   1.829821   4.078602   5.389931   5.301717
    21  H    9.998201   2.374049   4.900507   6.486365   6.344292
    22  H    8.506093   2.456506   4.351379   5.097260   4.890107
    23  H    8.505995   2.456505   4.351409   5.097193   4.890016
                    6          7          8          9         10
     6  C    0.000000
     7  C    2.800638   0.000000
     8  C    1.392226   2.443866   0.000000
     9  C    2.420605   1.412948   1.409889   0.000000
    10  C    2.470739   3.797087   3.762502   4.283171   0.000000
    11  C    3.773344   4.469742   4.978757   5.262928   1.364913
    12  C    4.896209   5.927295   6.206863   6.646649   2.444379
    13  H    3.428286   2.143639   3.904905   3.412445   2.781643
    14  H    1.094969   3.895606   2.151976   3.411684   2.666631
    15  H    3.895830   1.095203   3.435527   2.176823   4.686549
    16  H    2.171397   3.428940   1.092952   2.164403   4.641546
    17  H    2.625479   4.617589   4.016740   4.837404   1.098607
    18  H    4.237663   4.209553   5.254960   5.245816   2.150876
    19  H    4.336534   2.458922   3.187467   1.918297   6.072146
    20  C    6.762372   6.571172   7.806642   7.727616   4.475524
    21  H    7.862137   7.575492   8.894830   8.772659   5.567243
    22  H    6.478512   6.104412   7.447563   7.290129   4.331882
    23  H    6.478449   6.104311   7.447485   7.290035   4.331842
                   11         12         13         14         15
    11  C    0.000000
    12  C    1.469230   0.000000
    13  H    2.812340   4.253714   0.000000
    14  H    4.030603   4.884428   4.336994   0.000000
    15  H    5.151025   6.619610   2.467237   4.990799   0.000000
    16  H    5.925863   7.065305   4.997622   2.496976   4.330539
    17  H    2.094286   2.579641   3.859509   2.347106   5.590898
    18  H    1.091724   2.215249   2.219962   4.722476   4.683990
    19  H    6.894207   8.334383   4.548413   5.297913   2.301569
    20  C    3.121397   2.947620   4.439606   7.139221   6.820884
    21  H    4.207765   3.870545   5.432679   8.232956   7.746659
    22  H    3.064049   3.188532   3.999124   6.932197   6.305438
    23  H    3.063995   3.188545   3.999028   6.932150   6.305328
                   16         17         18         19         20
    16  H    0.000000
    17  H    4.702873   0.000000
    18  H    6.287015   3.088012   0.000000
    19  H    3.537648   6.718043   6.667441   0.000000
    20  C    8.837038   5.143403   2.551925   8.986621   0.000000
    21  H    9.930886   6.197178   3.643874   9.959617   1.100229
    22  H    8.490781   5.090273   2.358285   8.479822   1.099135
    23  H    8.490706   5.090266   2.358155   8.479719   1.099134
                   21         22         23
    21  H    0.000000
    22  H    1.786477   0.000000
    23  H    1.786476   1.808575   0.000000
 Symmetry turned off by external request.
 Stoichiometry    C10H10O2S
 Framework group  C1[X(C10H10O2S)]
 Deg. of freedom    63
 Full point group                 C1      NOp   1
 Rotational constants (GHZ):      2.0103738      0.2490893      0.2219499
 Standard basis: 6-31G(d,p) (6D, 7F)
 Integral buffers will be    131072 words long.
 Raffenetti 2 integral format.
 Two-electron integral symmetry is turned off.
   249 basis functions,   458 primitive gaussians,   249 cartesian basis functions
    51 alpha electrons       51 beta electrons
       nuclear repulsion energy       780.0896045170 Hartrees.
 NAtoms=   23 NActive=   23 NUniq=   23 SFac= 7.50D-01 NAtFMM=   80 NAOKFM=F Big=F
 Standard density basis: Auto (5D, 7F)
  1160 Density fitting functions
 ------------------------------------------------------------------------------
 Polarizable Continuum Model (PCM)
 =================================
 Model                : PCM.
 Atomic radii         : UFF (Universal Force Field).
 Polarization charges : Total charges.
 Charge compensation  : None.
 Solution method      : Matrix inversion.
 Cavity type          : Scaled VdW (van der Waals Surface) (Alpha=1.100).
 Cavity algorithm     : GePol (No added spheres)
                        Default sphere list used, NSphG=   23.
                        Lebedev-Laikov grids with approx.  5.0 points / Ang**2.
                        Smoothing algorithm: Karplus/York (Gamma=1.0000).
                        Polarization charges: spherical gaussians, with
                                              point-specific exponents (IZeta= 3).
                        Self-potential: point-specific (ISelfS= 7).
                        Self-field    : sphere-specific E.n sum rule (ISelfD= 2).
 1st derivatives      : Analytical E(r).r(x)/FMM algorithm (CHGder, D1EAlg=3).
                        Cavity 1st derivative terms included.
 Solvent              : Water, Eps=  78.355300 Eps(inf)=   1.777849
 ------------------------------------------------------------------------------
 One-electron integrals computed using PRISM.
 NBasis=   249 RedAO= T  NBF=   249
 NBsUse=   249 1.00D-06 NBFU=   249
 NBasis=      249 NBas6D=      249 NTT=       31125   NTT6D=    31125
 NDBShl=      198 NDBF=       1160 NDBF6D=     1341  NNucDB=        0
 IDenFi=        2 ISolve=        0 FullAP=F BlkAPC=T NucTyp=        0
 TolInv= 1.00D-05 TolIt=  1.00D-10 IR12=0.
 Symmetry not used in FoFDir.
 MinBra= 0 MaxBra= 3 Meth= 1.
 IRaf=       0 NMat=   1 IRICut=       1 DoRegI=T DoRafI=F ISym2E= 0 JSym2E=0.
  NDBF=  1160  NBFD=  1160
 NRank=  1155 NBFDU=  1155
 S*AI*S=  8.53319285820    
 Initial guess read from the read-write file.
 B after Tr=     0.000000    0.000000    0.000000
         Rot=    1.000000    0.000000    0.000000    0.000000 Ang=   0.00 deg.
 Harris functional with IExCor= 1009 diagonalized for initial guess.
 ExpMin= 1.17D-01 ExpMax= 2.19D+04 ExpMxC= 3.30D+03 IAcc=1 IRadAn=         1 AccDes= 0.00D+00
 HarFok:  IExCor= 1009 AccDes= 0.00D+00 IRadAn=         1 IDoV= 1
 ScaDFX=  1.000000  1.000000  1.000000  1.000000
 FoFCou: FMM=F IPFlag=           0 FMFlag=      100000 FMFlg1=           0
         NFxFlg=           0 DoJE=T BraDBF=F KetDBF=T FulRan=T
         Omega=  0.000000  0.000000  1.000000  0.000000  0.000000 ICntrl=     500 IOpCl=  0
         NMat0=    1 NMatS0=    1 NMatT0=    0 NMatD0=    1 NMtDS0=    0 NMtDT0=    0
         I1Cent=           4 NGrid=           0.
 Symmetry not used in FoFCou.
 Requested convergence on RMS density matrix=1.00D-08 within 128 cycles.
 Requested convergence on MAX density matrix=1.00D-06.
 Requested convergence on             energy=1.00D-06.
 No special actions if energy rises.
 FoFCou: FMM=F IPFlag=           0 FMFlag=      100000 FMFlg1=           0
         NFxFlg=           0 DoJE=T BraDBF=T KetDBF=F FulRan=T
         Omega=  0.000000  0.000000  1.000000  0.000000  0.000000 ICntrl=     500 IOpCl=  0
         NMat0=    1 NMatS0=    1 NMatT0=    0 NMatD0=    1 NMtDS0=    0 NMtDT0=    0
         I1Cent=           5 NGrid=           0.
 Symmetry not used in FoFCou.
 Error on total polarization charges =  0.01022
 SCF Done:  E(RPBE-PBE) =  -934.905606625     A.U. after   10 cycles
             Convg  =    0.8414D-08             -V/T =  2.0070
 D1PCM: PCM CHGder 1st derivatives, ID1Alg=3 FixD1E=F DoIter=F DoCFld=F I1PDM=0.
 Calling FoFJK, ICntrl=      2527 FMM=F ISym2X=0 I1Cent= 4 IOpClX= 0 NMat=1 NMatS=1 NMatT=0.
 -------------------------------------------------------------------
 Center     Atomic                   Forces (Hartrees/Bohr)
 Number     Number              X              Y              Z
 -------------------------------------------------------------------
      1        8          -0.001274050   -0.000410911    0.000000364
      2       16          -0.000007424   -0.000563634   -0.000001714
      3        8          -0.000882497   -0.001981713   -0.000001912
      4        6          -0.000585006   -0.000180363    0.000000454
      5        6           0.000203487    0.000100157    0.000000084
      6        6           0.000144180   -0.000107535    0.000000061
      7        6          -0.000474913    0.000164297    0.000000124
      8        6           0.000057104    0.000062882   -0.000000104
      9        6           0.001601699    0.000366018   -0.000000497
     10        6           0.000696623   -0.000152830   -0.000000636
     11        6          -0.002224697   -0.000710202   -0.000002045
     12        6           0.002494801    0.003080031    0.000005598
     13        1           0.000051529   -0.000068606    0.000000084
     14        1           0.000004336    0.000099348    0.000000016
     15        1           0.000091991   -0.000120207    0.000000105
     16        1          -0.000022310    0.000020860   -0.000000011
     17        1           0.000079928    0.000119282    0.000000059
     18        1           0.000027217   -0.000054507   -0.000000221
     19        1           0.000019511   -0.000040748   -0.000000181
     20        6          -0.000014399    0.000732461    0.000000113
     21        1           0.000049527   -0.000180447   -0.000000033
     22        1          -0.000018356   -0.000087120    0.000008651
     23        1          -0.000018280   -0.000086514   -0.000008358
 -------------------------------------------------------------------
 Cartesian Forces:  Max     0.003080031 RMS     0.000686954

 GradGradGradGradGradGradGradGradGradGradGradGradGradGradGradGradGradGrad
 Berny optimization.
 Using GEDIIS/GDIIS optimizer.
 Internal  Forces:  Max     0.002091256 RMS     0.000343461
 Search for a local minimum.
 Step number   2 out of a maximum of  138
 All quantities printed in internal units (Hartrees-Bohrs-Radians)
 Mixed Optimization -- En-DIIS/RFO-DIIS
 Update second derivatives using D2CorX and points    1    2
 DE= -1.92D-04 DEPred=-1.63D-04 R= 1.18D+00
 SS=  1.41D+00  RLast= 3.25D-02 DXNew= 5.0454D-01 9.7440D-02
 Trust test= 1.18D+00 RLast= 3.25D-02 DXMaxT set to 3.00D-01
 Use linear search instead of GDIIS.
     Eigenvalues ---    0.00230   0.00230   0.00856   0.01112   0.01370
     Eigenvalues ---    0.01718   0.01876   0.01891   0.01979   0.01984
     Eigenvalues ---    0.01995   0.02016   0.02047   0.02061   0.02097
     Eigenvalues ---    0.02107   0.02160   0.02596   0.09476   0.10293
     Eigenvalues ---    0.15473   0.16000   0.16000   0.16000   0.16000
     Eigenvalues ---    0.16000   0.16000   0.16000   0.16000   0.16278
     Eigenvalues ---    0.21259   0.22000   0.22106   0.22924   0.23117
     Eigenvalues ---    0.23849   0.24475   0.24495   0.25000   0.25000
     Eigenvalues ---    0.25000   0.25869   0.32289   0.33643   0.33668
     Eigenvalues ---    0.33780   0.33870   0.34185   0.34269   0.34369
     Eigenvalues ---    0.34507   0.34575   0.37880   0.40044   0.40872
     Eigenvalues ---    0.43309   0.44386   0.45323   0.46916   0.50165
     Eigenvalues ---    0.52338   0.53242   0.860361000.000001000.00000
     Eigenvalues --- 1000.000001000.000001000.000001000.000001000.00000
     Eigenvalues --- 1000.000001000.000001000.000001000.000001000.00000
     Eigenvalues --- 1000.000001000.000001000.000001000.000001000.00000
     Eigenvalues --- 1000.000001000.000001000.000001000.000001000.00000
     Eigenvalues --- 1000.000001000.000001000.000001000.000001000.00000
     Eigenvalues --- 1000.000001000.000001000.000001000.000001000.00000
     Eigenvalues --- 1000.000001000.000001000.000001000.000001000.00000
     Eigenvalues --- 1000.00000
 RFO step:  Lambda=-2.29679529D-05 EMin= 2.29999930D-03
 Quartic linear search produced a step of  0.25151.
 Iteration  1 RMS(Cart)=  0.00236161 RMS(Int)=  0.00000407
 Iteration  2 RMS(Cart)=  0.00000495 RMS(Int)=  0.00000133
 Iteration  3 RMS(Cart)=  0.00000000 RMS(Int)=  0.00000133
 Variable       Old X    -DE/DX   Delta X   Delta X   Delta X     New X
                                 (Linear)    (Quad)   (Total)
    R1        2.57401  -0.00132  -0.00120  -0.00235  -0.00355   2.57045
    R2        1.84706  -0.00004   0.00079  -0.00063   0.00016   1.84722
    R3        3.44169  -0.00010  -0.00020  -0.00038  -0.00058   3.44111
    R4        3.45786   0.00035  -0.00088   0.00242   0.00154   3.45940
    R5        2.33176   0.00209   0.00240   0.00117   0.00357   2.33533
    R6        2.68100   0.00013   0.00109  -0.00036   0.00073   2.68173
    R7        2.68185   0.00014   0.00063  -0.00001   0.00062   2.68247
    R8        2.74322  -0.00020  -0.00129   0.00021  -0.00108   2.74214
    R9        2.63045  -0.00004  -0.00038   0.00016  -0.00022   2.63023
   R10        2.06688  -0.00008  -0.00007  -0.00026  -0.00033   2.06655
   R11        2.63093   0.00005  -0.00017   0.00025   0.00009   2.63101
   R12        2.06919  -0.00010   0.00005  -0.00039  -0.00035   2.06885
   R13        2.67008   0.00024   0.00090   0.00006   0.00096   2.67104
   R14        2.06963  -0.00009  -0.00057   0.00005  -0.00052   2.06911
   R15        2.66430  -0.00007   0.00115  -0.00099   0.00016   2.66446
   R16        2.06538  -0.00003   0.00012  -0.00019  -0.00008   2.06530
   R17        2.57931   0.00057   0.00156   0.00027   0.00183   2.58114
   R18        2.07607  -0.00013   0.00007  -0.00052  -0.00045   2.07561
   R19        2.77644  -0.00183  -0.00217  -0.00502  -0.00720   2.76924
   R20        2.06306  -0.00005  -0.00034   0.00003  -0.00031   2.06275
   R21        2.07913  -0.00014  -0.00011  -0.00044  -0.00055   2.07858
   R22        2.07706  -0.00004  -0.00047   0.00018  -0.00029   2.07677
   R23        2.07706  -0.00004  -0.00047   0.00018  -0.00029   2.07677
    A1        1.90332   0.00004   0.00262  -0.00131   0.00131   1.90463
    A2        1.87921   0.00048   0.00196   0.00112   0.00307   1.88229
    A3        2.05425  -0.00018   0.00105  -0.00162  -0.00057   2.05368
    A4        2.15597   0.00013  -0.00059   0.00106   0.00047   2.15644
    A5        2.07297   0.00005  -0.00046   0.00056   0.00010   2.07307
    A6        2.11565   0.00009  -0.00023   0.00064   0.00040   2.11605
    A7        2.09618  -0.00006   0.00084  -0.00087  -0.00002   2.09615
    A8        2.07136  -0.00003  -0.00061   0.00023  -0.00038   2.07098
    A9        2.12417   0.00009  -0.00096   0.00110   0.00014   2.12431
   A10        2.07620  -0.00006   0.00090  -0.00097  -0.00007   2.07614
   A11        2.08281  -0.00003   0.00006  -0.00013  -0.00008   2.08273
   A12        2.09331   0.00006  -0.00056   0.00065   0.00009   2.09341
   A13        2.09727   0.00009   0.00014   0.00071   0.00085   2.09812
   A14        2.09260  -0.00015   0.00042  -0.00136  -0.00094   2.09166
   A15        2.08570   0.00008   0.00011   0.00031   0.00042   2.08612
   A16        2.11750  -0.00004  -0.00088   0.00038  -0.00050   2.11701
   A17        2.07998  -0.00004   0.00077  -0.00069   0.00008   2.08006
   A18        2.14160   0.00029  -0.00014   0.00154   0.00140   2.14301
   A19        2.04829  -0.00016  -0.00045  -0.00046  -0.00092   2.04738
   A20        2.09329  -0.00013   0.00059  -0.00108  -0.00049   2.09280
   A21        2.23680   0.00007  -0.00084   0.00095   0.00011   2.23691
   A22        2.02128  -0.00010  -0.00137   0.00012  -0.00125   2.02003
   A23        2.02511   0.00003   0.00221  -0.00107   0.00114   2.02625
   A24        2.07949   0.00034   0.00082   0.00142   0.00224   2.08173
   A25        2.12620  -0.00020   0.00004  -0.00123  -0.00118   2.12501
   A26        2.07750  -0.00014  -0.00086  -0.00020  -0.00106   2.07644
   A27        2.02036  -0.00081  -0.00141  -0.00313  -0.00454   2.01582
   A28        2.07589   0.00026  -0.00082   0.00187   0.00104   2.07694
   A29        2.18693   0.00055   0.00223   0.00126   0.00349   2.19043
   A30        1.84167  -0.00016   0.00002  -0.00126  -0.00124   1.84042
   A31        1.94707  -0.00007  -0.00164   0.00044  -0.00120   1.94587
   A32        1.94707  -0.00007  -0.00164   0.00045  -0.00120   1.94587
   A33        1.89607   0.00011   0.00127   0.00008   0.00135   1.89741
   A34        1.89606   0.00011   0.00126   0.00009   0.00135   1.89741
   A35        1.93238   0.00009   0.00087   0.00013   0.00099   1.93338
    D1       -0.00001   0.00000   0.00000  -0.00001  -0.00001  -0.00002
    D2        3.14158   0.00000   0.00000  -0.00001  -0.00001   3.14157
    D3       -3.14155   0.00000   0.00002   0.00024   0.00027  -3.14128
    D4        0.00010   0.00000   0.00005  -0.00014  -0.00009   0.00001
    D5        3.14158   0.00000  -0.00002  -0.00024  -0.00027   3.14131
    D6        1.08565   0.00000  -0.00070   0.00018  -0.00051   1.08514
    D7       -1.08568   0.00000   0.00065  -0.00066  -0.00002  -1.08570
    D8        0.00000   0.00000   0.00000   0.00000   0.00000   0.00000
    D9        3.14158   0.00000   0.00000   0.00001   0.00001   3.14159
   D10        3.14159   0.00000   0.00000   0.00001   0.00001   3.14159
   D11       -0.00001   0.00000   0.00000   0.00001   0.00001   0.00000
   D12        0.00001   0.00000   0.00000  -0.00001  -0.00001   0.00000
   D13       -3.14159   0.00000   0.00000   0.00000   0.00000   3.14159
   D14       -3.14158   0.00000   0.00000  -0.00001  -0.00001   3.14159
   D15        0.00000   0.00000   0.00000   0.00000   0.00000   0.00000
   D16       -0.00004   0.00000   0.00001   0.00002   0.00003  -0.00001
   D17        3.14155   0.00000   0.00000   0.00003   0.00003   3.14159
   D18        3.14155   0.00000   0.00001   0.00002   0.00003   3.14158
   D19       -0.00004   0.00000   0.00000   0.00003   0.00003  -0.00001
   D20        0.00000   0.00000   0.00000   0.00000   0.00000   0.00001
   D21        3.14159   0.00000   0.00000   0.00000   0.00000   3.14159
   D22       -3.14159   0.00000   0.00000   0.00000   0.00000  -3.14158
   D23        0.00000   0.00000   0.00000   0.00000   0.00000   0.00000
   D24        0.00000   0.00000   0.00000   0.00000   0.00000   0.00000
   D25        3.14159   0.00000   0.00000   0.00000   0.00000  -3.14159
   D26        3.14159   0.00000   0.00000   0.00000   0.00000   3.14159
   D27        0.00000   0.00000   0.00000   0.00000   0.00000   0.00000
   D28        3.14158   0.00000   0.00000   0.00000   0.00000   3.14158
   D29        0.00000   0.00000   0.00000  -0.00001  -0.00001  -0.00001
   D30        0.00000   0.00000   0.00000   0.00000   0.00000  -0.00001
   D31       -3.14159   0.00000   0.00000  -0.00001  -0.00001   3.14159
   D32       -3.14158   0.00000   0.00000   0.00000   0.00000  -3.14158
   D33        0.00000   0.00000   0.00000   0.00000   0.00000   0.00001
   D34        0.00000   0.00000   0.00000   0.00000   0.00000   0.00000
   D35        3.14159   0.00000   0.00000   0.00000   0.00000  -3.14159
   D36        3.14158   0.00000   0.00000   0.00002   0.00002  -3.14158
   D37       -0.00001   0.00000   0.00000   0.00002   0.00002   0.00001
   D38       -0.00001   0.00000   0.00000   0.00001   0.00001   0.00000
   D39        3.14159   0.00000   0.00000   0.00001   0.00001  -3.14159
   D40        3.14157   0.00000  -0.00001   0.00021   0.00020  -3.14141
   D41        0.00005   0.00000   0.00001  -0.00021  -0.00020  -0.00015
   D42       -0.00002   0.00000  -0.00002   0.00022   0.00020   0.00018
   D43       -3.14155   0.00000   0.00001  -0.00020  -0.00020   3.14144
         Item               Value     Threshold  Converged?
 Maximum Force            0.002091     0.000450     NO 
 RMS     Force            0.000343     0.000300     NO 
 Maximum Displacement     0.007646     0.001800     NO 
 RMS     Displacement     0.002360     0.001200     NO 
 Predicted change in Energy=-1.869774D-05
 GradGradGradGradGradGradGradGradGradGradGradGradGradGradGradGradGradGrad

                          Input orientation:                          
 ---------------------------------------------------------------------
 Center     Atomic      Atomic             Coordinates (Angstroms)
 Number     Number       Type             X           Y           Z
 ---------------------------------------------------------------------
      1          8           0        5.225448    0.623960   -0.000582
      2         16           0       -4.161400    0.247300    0.000445
      3          8           0       -2.841196   -1.997161    0.000329
      4          6           0        1.167148   -0.428985   -0.000043
      5          6           0        1.549200    0.937731   -0.000061
      6          6           0        2.200479   -1.402233   -0.000204
      7          6           0        2.889632    1.312571   -0.000232
      8          6           0        3.545305   -1.041867   -0.000378
      9          6           0        3.898928    0.323039   -0.000397
     10          6           0       -0.213401   -0.875881    0.000133
     11          6           0       -1.347135   -0.114121    0.000318
     12          6           0       -2.654821   -0.775493    0.000487
     13          1           0        0.785685    1.720639    0.000057
     14          1           0        1.929495   -2.462952   -0.000193
     15          1           0        3.165447    2.372191   -0.000245
     16          1           0        4.335397   -1.796991   -0.000506
     17          1           0       -0.362500   -1.964081    0.000121
     18          1           0       -1.306317    0.976676    0.000340
     19          1           0        5.333491    1.595480   -0.000595
     20          6           0       -3.646839    2.004132    0.000161
     21          1           0       -4.581938    2.583317   -0.000153
     22          1           0       -3.075653    2.256202   -0.904251
     23          1           0       -3.076014    2.256606    0.904689
 ---------------------------------------------------------------------
                    Distance matrix (angstroms):
                    1          2          3          4          5
     1  O    0.000000
     2  S    9.394403   0.000000
     3  O    8.481806   2.603948   0.000000
     4  C    4.192672   5.371293   4.304184   0.000000
     5  C    3.689614   5.752186   5.281020   1.419111   0.000000
     6  C    3.640865   6.572250   5.076655   1.419502   2.428909
     7  C    2.435205   7.131049   6.617909   2.449484   1.391857
     8  C    2.365980   7.813787   6.457553   2.455862   2.811271
     9  C    1.360224   8.060684   7.128296   2.833402   2.428800
    10  C    5.641862   4.104661   2.857023   1.451079   2.529021
    11  C    6.613896   2.837378   2.403759   2.533922   3.081420
    12  C    8.003569   1.820957   1.235803   3.837645   4.539706
    13  H    4.573205   5.161819   5.193872   2.183209   1.093572
    14  H    4.515787   6.666669   4.793376   2.172140   3.421881
    15  H    2.701835   7.628752   7.427719   3.440899   2.161003
    16  H    2.579379   8.739262   7.179384   3.450977   3.904049
    17  H    6.158175   4.395663   2.478917   2.167104   3.474925
    18  H    6.541282   2.946776   3.346575   2.844980   2.855782
    19  H    0.977509   9.590128   8.929310   4.632156   3.841028
    20  C    8.978996   1.830637   4.081594   5.393935   5.304341
    21  H   10.001195   2.373568   4.900099   6.490451   6.348134
    22  H    8.508179   2.456219   4.354806   5.101880   4.893382
    23  H    8.508779   2.456223   4.355174   5.102486   4.893935
                    6          7          8          9         10
     6  C    0.000000
     7  C    2.800910   0.000000
     8  C    1.392272   2.444031   0.000000
     9  C    2.421011   1.413454   1.409971   0.000000
    10  C    2.470599   3.797122   3.762369   4.283533   0.000000
    11  C    3.774228   4.470531   4.979627   5.264246   1.365882
    12  C    4.895585   5.924608   6.205846   6.645179   2.443484
    13  H    3.428407   2.143155   3.904734   3.412561   2.782102
    14  H    1.094786   3.895695   2.151819   3.411805   2.666607
    15  H    3.895823   1.094928   3.435125   2.176469   4.686852
    16  H    2.171108   3.429229   1.092912   2.164494   4.641121
    17  H    2.623839   4.616580   4.015149   4.836392   1.098367
    18  H    4.237550   4.209372   5.254784   5.246124   2.150915
    19  H    4.336133   2.460179   3.186410   1.917570   6.072531
    20  C    6.767161   6.572954   7.810574   7.730762   4.481404
    21  H    7.866753   7.578863   8.899104   8.776899   5.572268
    22  H    6.483750   6.106743   7.451935   7.293754   4.338242
    23  H    6.484390   6.107292   7.452579   7.294359   4.338808
                   11         12         13         14         15
    11  C    0.000000
    12  C    1.465420   0.000000
    13  H    2.813408   4.250619   0.000000
    14  H    4.031540   4.885026   4.337135   0.000000
    15  H    5.152198   6.616906   2.467345   4.990610   0.000000
    16  H    5.926485   7.064461   4.997417   2.496371   4.330226
    17  H    2.095676   2.582147   3.859468   2.345658   5.590140
    18  H    1.091561   2.211009   2.220350   4.722449   4.684457
    19  H    6.895904   8.332745   4.549528   5.296986   2.302974
    20  C    3.126602   2.951341   4.441581   7.144953   6.822223
    21  H    4.211903   3.872387   5.436505   8.237936   7.750262
    22  H    3.069927   3.191681   4.001816   6.938245   6.307298
    23  H    3.070384   3.191960   4.002291   6.938887   6.307781
                   16         17         18         19         20
    16  H    0.000000
    17  H    4.700867   0.000000
    18  H    6.286666   3.088502   0.000000
    19  H    3.536248   6.716754   6.668581   0.000000
    20  C    8.841077   5.151078   2.556113   8.989623   0.000000
[...]
 .06379996,-0.00000031,-0.00075897,0.00002680,0.00000002,-0.00382574,-0
 .02883419,-0.00000149,-0.00440656,0.00057022,0.00000178,0.00103239,0.0
 0237531,-0.00000059,0.00037713,-0.00034393,-0.00000003,-0.00038164,-0.
 00007045,0.00000006,0.00033175,0.00117962,0.00000016,0.07323744,-0.000
 29156,-0.00053505,0.,0.00009218,-0.00001829,-0.00000003,0.00005694,0.0
 0014657,0.,-0.00720898,-0.01614402,-0.00000059,0.00399237,-0.00125892,
 -0.00000106,-0.06395449,-0.30878642,-0.00001461,0.00033820,0.00054005,
 0.00000007,0.00050798,-0.00386349,-0.00000070,-0.00037303,0.00206714,-
 0.00000045,-0.00255428,0.00068372,0.00000065,0.00062998,0.00034535,-0.
 00000006,-0.00028778,-0.00023444,0.00000002,-0.00044670,-0.00094726,-0
 .00000009,0.06864117,0.32692688,0.00000002,0.00000016,0.00016676,-0.00
 000004,0.,-0.00005115,-0.00000003,0.,-0.00001253,-0.00000142,-0.000004
 37,0.00263183,0.00000142,-0.00000087,0.00469901,-0.00000045,-0.0000147
 0,-0.03400525,0.,0.00000011,-0.00070901,0.00000110,0.00000343,0.003229
 16,0.00000176,-0.00000058,0.00794846,-0.00000076,-0.00000004,-0.003573
 87,0.,0.00000004,0.00025440,0.00000007,0.,0.00017609,0.00000002,-0.000
 00030,0.00068479,-0.00000064,0.00001629,0.02373688,0.00384170,0.000937
 78,-0.00000092,-0.00015638,0.00004622,0.00000005,-0.00020163,-0.000122
 71,0.00000004,-0.00504500,0.00007861,0.00000180,-0.00358154,-0.0292834
 0,-0.00000197,-0.00119507,0.00014076,0.00000011,-0.06990335,-0.0627851
 9,-0.00000002,-0.00307189,0.00286131,0.00000132,0.00574743,0.02086686,
 0.00000146,0.00072241,-0.00159143,-0.00000016,-0.00041032,0.00003668,0
 .00000005,0.00047214,0.00013113,-0.00000006,0.00121138,0.00012165,-0.0
 0000071,0.00011566,-0.00012763,-0.00000013,0.07164941,-0.00069153,0.00
 242807,0.00000059,-0.00012525,0.00003906,0.00000004,-0.00015014,-0.000
 13202,0.00000002,-0.00113812,0.00205694,-0.00000039,0.00003398,-0.0039
 2504,-0.00000045,0.00085496,0.00047445,-0.00000004,-0.06350983,-0.3084
 7831,-0.00001653,0.00376831,-0.00116407,-0.00000107,-0.00988496,-0.016
 52656,-0.00000025,0.00053547,-0.00031256,-0.00000016,-0.00041931,0.000
 00121,0.00000004,0.00044238,0.00014553,-0.00000003,0.00004189,0.000861
 40,0.00000047,-0.00010807,-0.00011089,0.00000007,0.06881201,0.32603025
 ,-0.00000106,0.00000030,-0.00264446,0.00000003,0.,0.00000317,0.0000000
 4,0.00000003,0.00003001,0.00000181,-0.00000034,0.00767267,0.00000051,0
 .00000358,0.00126314,0.00000028,0.00000009,-0.00041620,-0.00000083,-0.
 00001722,-0.02929557,0.00000138,-0.00000097,0.00436624,-0.00000152,-0.
 00000453,0.00232875,-0.00000013,0.00000017,0.00059027,0.00000013,-0.00
 000002,0.00008705,-0.00000012,-0.00000002,-0.00010578,-0.00000074,0.00
 000049,-0.00435019,-0.00000013,0.00000008,-0.00076310,-0.00000001,0.00
 002014,0.02112264,0.00128236,0.00079913,-0.00000051,-0.00020524,0.0000
 4556,0.00000007,-0.00016414,-0.00017794,0.00000003,-0.00311704,-0.0034
 9259,0.00000123,-0.00022738,-0.00059686,-0.00000009,-0.01569476,0.0211
 1453,0.00000419,-0.00004360,-0.00192027,0.00000051,-0.19520234,0.13877
 293,0.00003519,0.00689317,-0.00714628,-0.00000112,-0.00023296,0.001305
 46,0.00000024,-0.00079303,-0.00027213,0.,0.00046457,0.00027692,-0.0000
 0007,0.00000097,0.00017229,-0.00000011,0.00123660,0.00001314,-0.000000
 79,0.00049146,-0.00042877,-0.00000010,0.20525778,0.00108148,0.00226756
 ,0.00000023,0.00001361,-0.00001346,0.,0.00004008,0.00005671,0.,-0.0021
 6430,0.00059059,-0.00000026,-0.00123767,-0.00041602,0.00000018,-0.0077
 6373,0.00950007,0.00000182,-0.00292699,-0.00456418,-0.00000035,0.13769
 292,-0.18839055,-0.00003297,0.02291638,-0.01518951,-0.00000490,-0.0004
 9933,0.00040005,0.00000003,0.00002371,-0.00011156,0.,-0.00016003,-0.00
 003616,0.00000003,0.00014557,0.00007547,0.00000006,0.00030838,0.000793
 51,0.00000039,0.00112064,-0.00088164,-0.00000025,-0.14858690,0.1955167
 9,-0.00000053,0.00000030,-0.00264710,0.00000004,0.,0.00005026,0.000000
 03,0.00000002,0.00001003,0.00000130,-0.00000023,0.00739416,-0.00000004
 ,0.00000017,-0.00053296,0.00000153,-0.00000226,0.00105382,0.00000040,-
 0.00000042,0.00483376,0.00003530,-0.00003305,-0.03032476,0.00000138,-0
 .00000080,0.00319242,0.00000009,-0.00000022,0.00081635,0.00000011,0.00
 000006,-0.00030441,-0.00000011,-0.00000003,-0.00015792,-0.00000011,0.0
 0000006,-0.00088048,-0.00000073,0.00000043,-0.00426344,0.00000002,-0.0
 0000001,0.00010810,-0.00003859,0.00003591,0.02223208,-0.00005684,0.000
 09757,0.00000002,0.00070090,-0.00081290,-0.00000020,0.00077923,-0.0025
 3455,0.00000020,-0.00336095,-0.02689492,-0.00000102,-0.00509758,0.0001
 5415,0.00000125,0.00088212,-0.00240241,-0.00000065,0.00044728,-0.00136
 669,-0.00000023,0.00004203,0.00037432,0.00000005,0.00015283,0.00001351
 ,0.00000001,-0.05654281,-0.03445172,-0.00000052,0.00588156,0.02631527,
 0.00000192,-0.00099832,0.00427653,-0.00000078,0.00012482,-0.00004928,-
 0.00000004,-0.00044130,0.00113924,-0.00000012,-0.00041834,-0.00011687,
 0.,0.00001111,0.00000619,0.,0.06146504,-0.00028588,-0.00003089,0.00000
 004,0.00012849,-0.00038828,-0.00000010,-0.00152722,0.00196600,-0.00000
 057,-0.00033506,-0.00776122,-0.00000085,-0.00097285,0.00120612,0.00000
 002,0.00230673,0.00119546,-0.00000002,0.00016634,-0.00041695,-0.000000
 04,-0.00026829,0.00005918,0.00000003,0.00033293,0.00020530,-0.00000005
 ,-0.03422508,-0.30910363,-0.00001343,-0.00004052,-0.01716975,-0.000001
 45,-0.00202205,-0.00201680,0.00000094,0.00010844,0.00000329,0.,-0.0005
 6058,0.00027206,0.00000027,-0.00018168,-0.00003396,0.00000006,-0.00002
 506,-0.00000003,0.,0.03482559,0.33237851,-0.00000012,-0.00000005,0.000
 02498,0.00000016,0.00000020,0.00043139,0.00000033,-0.00000052,0.000314
 12,0.00000104,0.00000203,0.00449767,0.00000098,-0.00000022,0.00370803,
 -0.00000003,0.00000079,-0.00201683,-0.00000016,0.00000016,-0.00024954,
 -0.00000003,-0.00000013,0.00015793,0.00000013,0.,0.00023376,-0.0000009
 3,-0.00001252,-0.04150383,0.00000044,-0.00000510,0.00637953,-0.0000015
 5,0.00000043,-0.00638988,-0.00000001,0.00000003,-0.00011179,-0.0000002
 7,0.00000002,0.00017912,-0.00000004,0.00000005,-0.00045831,0.,0.,-0.00
 000097,-0.00000154,0.00001597,0.02590424,0.00013891,-0.00005536,0.,-0.
 00100055,0.00045017,0.00000045,-0.00628565,-0.00266898,0.00000168,0.00
 051968,-0.00100385,-0.00000050,-0.00089677,0.00117106,0.00000029,0.000
 06321,-0.00002965,0.00000001,0.00013792,-0.00045216,-0.00000010,0.0000
 5339,-0.00019924,-0.00000003,-0.00005800,0.00013553,-0.00000002,0.0057
 0521,0.02638464,0.00000095,-0.05230570,-0.00920770,0.00000062,0.005811
 91,-0.02701327,-0.00000260,-0.00151170,-0.00108583,0.00000009,0.000125
 34,-0.00013154,-0.00000002,0.00000479,0.00001083,0.,0.00001536,-0.0000
 0026,0.,-0.00383815,0.00213779,0.00000157,0.05648689,-0.00003759,0.000
 02302,0.,-0.00098101,-0.00021404,-0.00000003,-0.00225144,0.00022755,-0
 .00000039,-0.00136463,-0.00025245,0.00000039,-0.00052318,0.00027913,0.
 00000004,0.00012649,-0.00005440,-0.00000004,0.00000171,0.00031311,0.,0
 .00000147,0.00000661,0.,-0.00007911,-0.00003620,0.00000001,-0.00170779
 ,-0.01277626,-0.00000054,-0.01156576,-0.32811291,-0.00001606,0.0035922
 9,-0.00976193,0.00000027,-0.00038991,0.00047727,-0.00000006,-0.0000052
 8,0.00009069,0.,0.00000571,-0.00000975,0.,0.00002060,0.00000681,0.,0.0
 0184293,-0.00025169,-0.00000069,0.00942903,0.35115040,-0.00000020,-0.0
 0000009,0.00023606,-0.00000036,0.00000004,-0.00060582,0.00000117,0.000
 00049,0.00387281,-0.00000107,0.00000030,-0.00482461,-0.00000006,-0.000
 00003,-0.00003351,0.00000013,-0.00000008,-0.00008443,-0.00000016,0.000
 00015,-0.00031392,-0.00000010,-0.00000010,-0.00001581,0.00000013,0.000
 00007,-0.00033956,0.00000050,-0.00000439,0.00381026,0.00000010,-0.0000
 1440,-0.03029477,0.00000037,0.00000219,-0.00216392,0.00000016,0.,0.000
 96079,0.00000001,0.00000002,0.00007893,0.,-0.00000002,0.00009025,0.,0.
 ,0.00005274,0.00000162,-0.00000079,0.00911712,-0.00000289,0.00001753,0
 .02036122,-0.04087866,-0.00681118,0.00000537,0.00017847,-0.00005979,-0
 .00000006,0.00020107,0.00025606,-0.00000004,0.00096281,0.00074065,-0.0
 0000004,-0.00070849,-0.00043938,-0.00000007,0.00052840,-0.00166643,0.,
 0.00304827,-0.00226933,0.00000074,-0.00649258,0.00084965,0.00000158,-0
 .01596612,-0.04985714,-0.00000076,-0.00087737,0.00019754,0.00000012,0.
 00073626,-0.00009759,-0.00000009,-0.00066869,-0.00027548,0.00000009,0.
 00033710,0.00002781,-0.00000003,-0.00040513,-0.00002918,-0.00000001,-0
 .00026590,0.00207830,0.00000047,0.00003033,-0.00001244,-0.00000008,0.0
 0006145,0.00005502,0.,-0.00003249,0.00000469,0.00000001,0.06020354,-0.
 05909621,-0.47300088,-0.00001587,0.00028545,-0.00009739,-0.00000009,0.
 00029758,0.00044472,-0.00000004,0.00142482,0.00092158,-0.00000011,-0.0
 0063533,-0.00175467,-0.00000008,-0.00059506,-0.00076956,-0.00000012,0.
 00593095,0.00478866,-0.00000075,-0.00104907,0.00337722,0.00000018,-0.0
 0161351,-0.01362563,-0.00000028,-0.00148389,-0.00008888,0.00000023,0.0
 0130700,-0.00014471,-0.00000019,-0.00113700,-0.00052842,0.00000013,0.0
 0022151,0.00003326,-0.00000003,-0.00021891,0.00003343,0.00000007,-0.00
 107973,-0.00046620,-0.00000154,0.00011849,0.00039505,0.00000007,0.0000
 0942,0.00000411,0.,-0.00000831,0.00000084,0.00000003,0.05731322,0.4804
 8223,0.00000257,-0.00002323,-0.00592252,-0.00000003,0.00000001,-0.0000
 0813,-0.00000005,-0.00000004,-0.00001611,-0.00000014,-0.00000014,0.000
 06640,0.00000009,-0.00000008,-0.00054253,0.00000007,-0.00000006,0.0018
 5708,0.00000241,0.00000053,-0.00094963,0.00000128,-0.00000018,0.003458
 03,0.00000192,0.00000718,-0.00282118,0.00000012,-0.00000005,-0.0001822
 4,-0.00000012,0.00000001,0.00005731,0.00000013,0.00000004,0.00005210,-
 0.00000006,0.,0.00009812,-0.00000004,0.00000002,-0.00041361,-0.0000008
 2,-0.00000244,0.00037441,-0.00000008,0.00000007,-0.00062482,-0.0000000
 2,-0.00000001,-0.00003058,0.,0.,-0.00001714,-0.00000721,0.00001838,0.0
 0556497,-0.00052746,-0.00016438,0.00000007,-0.06531828,-0.05161191,0.0
 0002679,-0.00856853,0.00904835,0.00000452,-0.00055523,-0.00022503,0.00
 000017,0.00012670,0.00030908,0.00000002,0.00029206,-0.00022378,-0.0000
 0006,-0.00031720,0.00013785,0.00000003,-0.00020208,-0.00025740,0.00000
 001,0.00044365,0.00007836,-0.00000006,0.00218191,-0.00012431,0.,-0.003
 98784,-0.00092140,0.00000007,0.02027845,0.01353139,-0.00001241,0.00005
 404,0.00003017,0.00000005,0.00003348,0.00000840,-0.00000001,-0.0000322
 3,-0.00002504,0.,-0.00003071,0.00000979,0.,0.00035101,0.00037637,-0.00
 000030,-0.00197907,0.00186843,0.00000060,0.00004138,0.00006115,-0.0000
 0001,0.53129894,-0.00013437,-0.00004651,0.00000002,-0.02647498,-0.1154
 7808,0.00003919,0.00226477,-0.00198876,0.00000124,-0.00028364,0.000066
 28,0.00000030,0.00007379,0.00012892,0.00000005,0.00008557,-0.00007946,
 0.00000002,-0.00011141,0.00004258,-0.00000003,-0.00005308,-0.00007585,
 0.,0.00012566,0.00002003,-0.00000001,-0.00032003,-0.00055110,-0.000000
 31,-0.00049083,0.00155473,0.,-0.00094890,-0.00929978,0.00000062,-0.000
 03250,-0.00002332,0.00000001,-0.00000443,0.00000815,0.,0.00000004,-0.0
 0000450,0.,-0.00000561,0.00000093,0.,-0.00003717,-0.00022860,-0.000000
 35,-0.00001996,-0.00053402,0.00000064,0.00000672,0.00001738,0.,-0.0357
 6068,0.33397993,0.00000020,0.00000005,0.00001095,0.00001985,0.00005188
 ,-0.03049358,0.00000469,-0.00000191,0.00451529,-0.00000007,-0.00000007
 ,0.00031687,0.,0.00000005,0.00002770,0.00000002,0.00000008,0.00003320,
 0.00000010,-0.00000006,-0.00005200,0.00000005,0.00000002,-0.00002076,-
 0.00000016,0.,-0.00000720,-0.00000042,-0.00000086,-0.00031171,0.000001
 28,-0.00000064,-0.00082769,-0.00000487,-0.00000626,-0.00398108,-0.0000
 0009,-0.00000007,0.00004036,-0.00000001,0.,0.00000666,0.00000002,0.000
 00002,-0.00000175,0.00000002,0.,-0.00000639,0.00000016,-0.00000028,-0.
 00020988,-0.00000156,0.00000103,0.00106889,-0.00000002,-0.00000002,-0.
 00000030,0.00001531,0.00007294,0.53613388,0.00000279,0.00000299,0.,0.0
 0857982,-0.00545716,-0.00000289,0.00121746,-0.00185829,0.00000012,0.00
 006499,-0.00003071,0.,0.00000394,-0.00003235,-0.00000002,-0.00001302,0
 .00001139,0.,0.00000584,0.00000522,0.,0.00000581,0.00000615,0.,-0.0000
 0459,-0.00000956,0.,0.00018742,0.00052118,-0.00000002,-0.00005254,-0.0
 0073382,-0.00000007,-0.00275478,-0.00121624,0.00000055,0.00000923,0.00
 001034,0.,0.00000112,-0.00000188,0.,-0.00000177,-0.00000024,0.,0.00000
 054,0.00000013,0.,-0.00015770,0.00003193,0.00000004,0.00022006,0.00053
 959,0.00000004,0.00000005,-0.00000085,0.,-0.24058722,0.12108506,0.0000
 7763,0.25635996,0.00019418,0.00006276,-0.00000002,0.02083531,-0.015952
 30,-0.00000539,0.00316448,-0.00388708,-0.00000043,0.00021900,0.0000471
 7,0.,-0.00002817,-0.00012126,-0.00000002,-0.00010453,0.00008832,0.0000
 0002,0.00011378,-0.00004941,0.,0.00007576,0.00009122,0.,-0.00016373,-0
 .00003311,0.00000002,-0.00043315,0.00047190,0.00000009,0.00067714,0.00
 063509,-0.00000028,-0.00830387,-0.00173551,0.00000273,-0.00001166,-0.0
 0001006,0.,-0.00000945,-0.00000700,0.,0.00001141,0.00000941,0.,0.00001
 191,-0.00000210,0.,-0.00026643,-0.00007566,0.00000003,0.00058356,-0.00
 025667,0.00000007,-0.00001395,-0.00002262,0.,0.12457561,-0.11139995,-0
 .00005048,-0.12832955,0.12315368,-0.00000014,-0.00000004,-0.00000176,-
 0.00001092,0.00000698,-0.00035535,-0.00000104,0.00000233,0.00039717,-0
 .00000008,0.,0.00004161,0.00000001,0.00000005,-0.00000360,0.00000005,-
 0.00000007,-0.00000083,-0.00000008,0.00000003,0.00000260,-0.00000005,-
 0.00000005,-0.00000038,0.00000011,0.00000002,0.00000314,0.00000041,0.0
 0000001,0.00002534,-0.00000057,-0.00000019,0.00030539,0.00000231,0.000
 00070,-0.00092694,0.00000003,0.00000003,-0.00000078,0.,0.,-0.00000103,
 0.,0.,-0.00000133,-0.00000001,0.,-0.00000078,0.00000004,0.00000017,-0.
 00003908,0.00000013,0.00000003,-0.00031236,0.00000001,0.00000002,0.000
 00014,0.00007745,-0.00004820,-0.04187692,-0.00008508,0.00004867,0.0410
 5737,0.00022509,0.00006892,0.00000317,-0.00254503,-0.00258255,0.002817
 25,0.00012842,0.00006206,0.00020586,0.00024575,0.00004998,-0.00004548,
 -0.00007356,-0.00012201,0.00000448,-0.00010487,0.00010123,-0.00001112,
 0.00013851,-0.00006358,-0.00000498,0.00007920,0.00009988,0.00001223,-0
 .00019005,-0.00002173,-0.00000291,-0.00051878,0.00007118,0.00011353,0.
 00088467,-0.00021163,0.00022711,-0.00037947,0.00073418,-0.00110227,-0.
 00002092,-0.00001264,0.00000891,-0.00001049,-0.00000627,-0.00000699,0.
 00001353,0.00001000,0.00000046,0.00001348,-0.00000361,0.00000114,0.000
 00640,-0.00001276,-0.00005991,-0.00068628,0.00073440,-0.00052080,-0.00
 001685,-0.00002587,-0.00000176,-0.11637080,-0.02942541,0.11613091,-0.0
 1153348,-0.00639324,0.02090777,0.12152428,-0.00000286,0.00000159,0.000
 00189,-0.01439156,-0.01745878,0.01677748,0.00036954,-0.00035775,-0.000
 98527,0.00001253,-0.00003094,-0.00004329,0.00001821,-0.00002268,0.0000
 0307,0.00000106,0.00000500,0.00000729,-0.00000647,0.00000973,-0.000001
 22,0.00000057,-0.00000031,-0.00000453,0.00000213,-0.00000880,-0.000003
 35,0.00041261,0.00030487,-0.00004099,-0.00003227,-0.00051311,-0.000185
 85,-0.00149295,0.00197700,0.00111547,0.00001342,0.00001533,0.00000257,
 -0.00000071,-0.00000087,0.00000008,0.00000049,-0.00000040,0.00000119,0
 .00000074,0.00000083,0.00000038,-0.00006080,0.00009360,0.00007199,0.00
 078447,-0.00015702,0.00050366,0.00000110,0.00000023,0.00000028,-0.0303
 0118,-0.04802805,0.05155887,0.00771995,0.00449261,-0.01415458,0.032584
 53,0.05783178,0.00006974,0.00001988,-0.00000055,-0.00275062,-0.0009758
 3,0.00504083,-0.00035416,-0.00016562,-0.00007235,0.00001055,0.00000377
 ,-0.00002060,-0.00001406,0.00000430,0.00000394,-0.00000993,0.00002784,
 0.00000212,0.00003253,-0.00002405,0.00000185,0.00002391,0.00001866,-0.
 00000066,-0.00005425,-0.00000475,0.00000080,-0.00021710,-0.00030855,-0
 .00000841,0.00017896,0.00024288,0.00017758,0.00074198,0.00045215,-0.00
 005549,-0.00002584,-0.00001800,-0.00000536,-0.00000528,-0.00000188,0.0
 0000045,0.00000703,0.00000473,0.,0.00000666,0.00000007,0.00000016,0.00
 010503,-0.00007586,0.00003131,-0.00062382,0.00023031,-0.00032206,-0.00
 000605,-0.00000716,0.00000012,0.11571787,0.04613899,-0.23233596,-0.002
 01787,-0.00037427,0.00083761,-0.12472980,-0.04989893,0.24345474,0.0002
 2488,0.00006885,-0.00000323,-0.00254582,-0.00258449,-0.00280723,0.0001
 2892,0.00006211,-0.00020611,0.00024560,0.00004992,0.00004532,-0.000073
 50,-0.00012192,-0.00000448,-0.00010476,0.00010113,0.00001113,0.0001384
 0,-0.00006352,0.00000495,0.00007912,0.00009979,-0.00001223,-0.00018987
 ,-0.00002170,0.00000296,-0.00051789,0.00007169,-0.00011344,0.00088347,
 -0.00020991,-0.00022523,-0.00038098,0.00073424,0.00110154,-0.00002087,
 -0.00001263,-0.00000896,-0.00001047,-0.00000627,0.00000701,0.00001351,
 0.00000999,-0.00000047,0.00001347,-0.00000361,-0.00000114,0.00000623,-
 0.00001259,0.00006020,-0.00068830,0.00073834,0.00052081,-0.00001684,-0
 .00002585,0.00000177,-0.11662497,-0.02953861,-0.11624305,-0.01155392,-
 0.00640442,-0.02089037,0.00919123,0.00436745,0.01391452,0.12180338,-0.
 00000325,0.00000148,-0.00000189,-0.01441097,-0.01746527,-0.01674953,0.
 00037042,-0.00035572,0.00098512,0.00001228,-0.00003104,0.00004335,0.00
 001832,-0.00002259,-0.00000310,0.00000120,0.00000485,-0.00000730,-0.00
 000670,0.00000986,0.00000124,0.00000044,-0.00000047,0.00000454,0.00000
 245,-0.00000876,0.00000335,0.00041388,0.00030561,0.00004103,-0.0000333
 1,-0.00051567,0.00018511,-0.00149179,0.00197510,-0.00111527,0.00001353
 ,0.00001540,-0.00000258,-0.00000069,-0.00000087,-0.00000008,0.00000047
 ,-0.00000042,-0.00000120,0.00000072,0.00000084,-0.00000038,-0.00006099
 ,0.00009385,-0.00007212,0.00078905,-0.00015808,-0.00050528,0.00000113,
 0.00000027,-0.00000028,-0.03041986,-0.04808094,-0.05162430,0.00773672,
 0.00450057,0.01414410,0.00436494,0.00184613,0.00471132,0.03270202,0.05
 788588,-0.00006981,-0.00001990,-0.00000054,0.00276783,0.00098988,0.005
 04975,0.00035429,0.00016538,-0.00007296,-0.00001054,-0.00000372,-0.000
 02069,0.00001407,-0.00000433,0.00000395,0.00000993,-0.00002788,0.00000
 212,-0.00003256,0.00002408,0.00000185,-0.00002395,-0.00001868,-0.00000
 067,0.00005431,0.00000476,0.00000078,0.00021700,0.00030896,-0.00000849
 ,-0.00017844,-0.00024365,0.00017450,-0.00074264,-0.00045343,-0.0000551
 6,0.00002590,0.00001801,-0.00000535,0.00000529,0.00000189,0.00000045,-
 0.00000704,-0.00000474,0.,-0.00000667,-0.00000007,0.00000016,-0.000105
 17,0.00007595,0.00003149,0.00062575,-0.00023184,-0.00032118,0.00000606
 ,0.00000717,0.00000012,-0.11583011,-0.04620510,-0.23202859,0.00202756,
 0.00037928,0.00085077,-0.01394678,-0.00472618,-0.01673006,0.12484572,0
 .04996415,0.24312774\\0.00000292,0.00000373,-0.00000001,-0.00000789,-0
 .00000262,0.00000696,0.00000716,0.00000781,0.00000713,0.00000396,0.000
 00329,-0.00000133,0.00000516,-0.00000074,0.,0.00000505,0.00000679,-0.0
 0000033,-0.00000626,-0.00000628,-0.00000007,-0.00000141,0.00000622,0.0
 0000021,0.00000429,0.00000732,0.00000017,-0.00000152,0.00000856,0.0000
 0148,-0.00000027,-0.00002131,0.00000778,0.00000769,-0.00000926,-0.0000
 2157,-0.00000333,-0.00000021,-0.00000001,0.00000277,0.00000178,-0.0000
 0003,-0.00000037,0.00000556,-0.00000003,0.00000337,0.00000216,0.000000
 04,-0.00000278,-0.00000268,0.00000045,0.00000020,0.00000019,0.00000150
 ,-0.00000976,-0.00000500,0.00000008,-0.00000440,-0.00000676,-0.0000006
 3,-0.00000378,0.00000052,-0.00000069,-0.00000162,0.00000217,-0.0000017
 1,0.00000083,-0.00000125,0.00000062\\\@


 THERE IS AN OLD, OLD RECIPE IN MAINE FOR STEWING COOT. PLACE THE
 BIRD IN A KETTLE OF WATER WITH A RED BUILDING BRICK FREE OF MORTAR AND
 BLEMISHES. PARBOIL THE COOT AND BRICK TOGETHER FOR THREE HOURS.
 POUR OFF THE WATER, REFILL THE KETTLE, AND AGAIN PARBOIL FOR THREE HOURS.
 ONCE AGAIN POUR OFF THE WATER, FOR THE LAST TIME ADD FRESH WATER,
 AND LET THE COOT AND BRICK SIMMER TOGETHER OVERNIGHT. IN THE MORNING,
 THROW AWAY THE COOT AND EAT THE BRICK.
 Job cpu time:  0 days  0 hours 14 minutes 14.5 seconds.
 File lengths (MBytes):  RWF=    272 Int=      0 D2E=      0 Chk=     24 Scr=      1
 Normal termination of Gaussian 09 at Fri Nov  1 10:25:39 2019.
