 Entering Gaussian System, Link 0=g09
 Input=td5.com
 Output=td5.log
 Initial command:
 /home/diegoa/progs/g09/l1.exe /home/diegoa/g09scratch/Gau-11459.inp -scrdir=/home/diegoa/g09scratch/
 Default is to use a total of   4 processors:
                                4 via shared-memory
                                1 via Linda
 Entering Link 1 = /home/diegoa/progs/g09/l1.exe PID=     11461.
  
 Copyright (c) 1988,1990,1992,1993,1995,1998,2003,2009, Gaussian, Inc.
                  All Rights Reserved.
  
 This is part of the Gaussian(R) 09 program.  It is based on
 the Gaussian(R) 03 system (copyright 2003, Gaussian, Inc.),
 the Gaussian(R) 98 system (copyright 1998, Gaussian, Inc.),
 the Gaussian(R) 94 system (copyright 1995, Gaussian, Inc.),
 the Gaussian 92(TM) system (copyright 1992, Gaussian, Inc.),
 the Gaussian 90(TM) system (copyright 1990, Gaussian, Inc.),
 the Gaussian 88(TM) system (copyright 1988, Gaussian, Inc.),
 the Gaussian 86(TM) system (copyright 1986, Carnegie Mellon
 University), and the Gaussian 82(TM) system (copyright 1983,
 Carnegie Mellon University). Gaussian is a federally registered
 trademark of Gaussian, Inc.
  
 This software contains proprietary and confidential information,
 including trade secrets, belonging to Gaussian, Inc.
  
 This software is provided under written license and may be
 used, copied, transmitted, or stored only in accord with that
 written license.
  
 The following legend is applicable only to US Government
 contracts under FAR:
  
                    RESTRICTED RIGHTS LEGEND
  
 Use, reproduction and disclosure by the US Government is
 subject to restrictions as set forth in subparagraphs (a)
 and (c) of the Commercial Computer Software - Restricted
 Rights clause in FAR 52.227-19.
  
 Gaussian, Inc.
 340 Quinnipiac St., Bldg. 40, Wallingford CT 06492
  
  
 ---------------------------------------------------------------
 Warning -- This program may not be used in any manner that
 competes with the business of Gaussian, Inc. or will provide
 assistance to any competitor of Gaussian, Inc.  The licensee
 of this program is prohibited from giving any competitor of
 Gaussian, Inc. access to this program.  By using this program,
 the user acknowledges that Gaussian, Inc. is engaged in the
 business of creating and licensing software in the field of
 computational chemistry and represents and warrants to the
 licensee that it is not a competitor of Gaussian, Inc. and that
 it will not use this program in any manner prohibited above.
 ---------------------------------------------------------------
  

 Cite this work as:
 Gaussian 09, Revision A.01,
 M. J. Frisch, G. W. Trucks, H. B. Schlegel, G. E. Scuseria, 
 M. A. Robb, J. R. Cheeseman, G. Scalmani, V. Barone, B. Mennucci, 
 G. A. Petersson, H. Nakatsuji, M. Caricato, X. Li, H. P. Hratchian, 
 A. F. Izmaylov, J. Bloino, G. Zheng, J. L. Sonnenberg, M. Hada, 
 M. Ehara, K. Toyota, R. Fukuda, J. Hasegawa, M. Ishida, T. Nakajima, 
 Y. Honda, O. Kitao, H. Nakai, T. Vreven, J. A. Montgomery, Jr., 
 J. E. Peralta, F. Ogliaro, M. Bearpark, J. J. Heyd, E. Brothers, 
 K. N. Kudin, V. N. Staroverov, R. Kobayashi, J. Normand, 
 K. Raghavachari, A. Rendell, J. C. Burant, S. S. Iyengar, J. Tomasi, 
 M. Cossi, N. Rega, J. M. Millam, M. Klene, J. E. Knox, J. B. Cross, 
 V. Bakken, C. Adamo, J. Jaramillo, R. Gomperts, R. E. Stratmann, 
 O. Yazyev, A. J. Austin, R. Cammi, C. Pomelli, J. W. Ochterski, 
 R. L. Martin, K. Morokuma, V. G. Zakrzewski, G. A. Voth, 
 P. Salvador, J. J. Dannenberg, S. Dapprich, A. D. Daniels, 
 O. Farkas, J. B. Foresman, J. V. Ortiz, J. Cioslowski, 
 and D. J. Fox, Gaussian, Inc., Wallingford CT, 2009.
 
 ******************************************
 Gaussian 09:  EM64L-G09RevA.01  8-May-2009
                 1-Nov-2019 
 ******************************************
 %chk=td5.chk
 %NProcShared=4
 Will use up to    4 processors via shared memory.
 Default route:  MP2=Direct MaxDisk=1000GB DenFit
 ---------------------------------------------------
 # pbepbe/6-31G** force nosymm td(root=5,nstates=10)
 ---------------------------------------------------
 1/10=7,30=1,38=1/1,3;
 2/12=2,15=1,17=6,18=5,40=1/2;
 3/5=1,6=6,7=101,11=2,16=1,25=1,30=1,71=1,74=1009,82=47/1,2,8,3;
 4//1;
 5/5=2,38=5/2;
 8/6=1,10=2,107=5,108=10/1;
 9/8=5,15=2,41=10,42=1/14;
 10/5=4,31=1/2;
 6/7=2,8=2,9=2,10=2,18=1/1;
 7/12=6,13=5,14=5,29=1,30=1/1,2,3,16;
 1/10=7,30=1/3;
 99//99;
 -----
 Title
 -----
 Symbolic Z-matrix:
 Charge =  0 Multiplicity = 1
 8                     5.22538   0.62452  -0.00053 
 16                   -4.16157   0.24708   0.00078 
 8                    -2.84187  -1.99701   0.00053 
 6                     1.16694  -0.42918  -0.00004 
 6                     1.54914   0.93742   0.00003 
 6                     2.20059  -1.40206  -0.00026 
 6                     2.8894    1.31233  -0.00012 
 6                     3.54526  -1.04172  -0.00042 
 6                     3.89916   0.3232   -0.00036 
 6                    -0.21333  -0.87629   0.00011 
 6                    -1.34729  -0.11493   0.00029 
 6                    -2.65486  -0.77534   0.0004 
 1                     0.78544   1.72024   0.00021 
 1                     1.92965  -2.46283  -0.00031 
 1                     3.16523   2.37211  -0.00006 
 1                     4.33556  -1.79665  -0.0006 
 1                    -0.36305  -1.96445   0.00006 
 1                    -1.30558   0.97607   0.00035 
 1                     5.33332   1.59594  -0.0005 
 6                    -3.64656   2.00442   0.00002 
 1                    -4.58167   2.58365   0.00038 
 1                    -3.07593   2.25654  -0.90481 
 1                    -3.07493   2.25703   0.90408 
 

 GradGradGradGradGradGradGradGradGradGradGradGradGradGradGradGradGradGrad
 Berny optimization.
 Initialization pass.
 Trust Radius=3.00D-01 FncErr=1.00D-07 GrdErr=1.00D-07
 Number of steps in this run=   2 maximum allowed number of steps=   2.
 GradGradGradGradGradGradGradGradGradGradGradGradGradGradGradGradGradGrad

                          Input orientation:                          
 ---------------------------------------------------------------------
 Center     Atomic      Atomic             Coordinates (Angstroms)
 Number     Number       Type             X           Y           Z
 ---------------------------------------------------------------------
      1          8           0        5.225377    0.624520   -0.000530
      2         16           0       -4.161568    0.247084    0.000776
      3          8           0       -2.841869   -1.997013    0.000534
      4          6           0        1.166939   -0.429177   -0.000036
      5          6           0        1.549143    0.937423    0.000032
      6          6           0        2.200595   -1.402062   -0.000261
      7          6           0        2.889395    1.312330   -0.000121
      8          6           0        3.545264   -1.041719   -0.000419
      9          6           0        3.899159    0.323198   -0.000356
     10          6           0       -0.213329   -0.876292    0.000110
     11          6           0       -1.347293   -0.114931    0.000291
     12          6           0       -2.654859   -0.775341    0.000398
     13          1           0        0.785435    1.720240    0.000210
     14          1           0        1.929650   -2.462830   -0.000314
     15          1           0        3.165231    2.372113   -0.000062
     16          1           0        4.335555   -1.796651   -0.000596
     17          1           0       -0.363049   -1.964454    0.000059
     18          1           0       -1.305576    0.976066    0.000349
     19          1           0        5.333318    1.595939   -0.000496
     20          6           0       -3.646559    2.004418    0.000019
     21          1           0       -4.581666    2.583649    0.000380
     22          1           0       -3.075927    2.256543   -0.904810
     23          1           0       -3.074927    2.257026    0.904082
 ---------------------------------------------------------------------
                    Distance matrix (angstroms):
                    1          2          3          4          5
     1  O    0.000000
     2  S    9.394530   0.000000
     3  O    8.482505   2.603378   0.000000
     4  C    4.192994   5.371249   4.304492   0.000000
     5  C    3.689526   5.752286   5.281278   1.419040   0.000000
     6  C    3.640926   6.572427   5.077441   1.419489   2.428493
     7  C    2.435138   7.130977   6.618092   2.449429   1.391701
     8  C    2.366249   7.813851   6.458177   2.455939   2.810961
     9  C    1.360018   8.061086   7.129154   2.833919   2.428960
    10  C    5.641982   4.104944   2.857488   1.450880   2.529006
    11  C    6.614135   2.837463   2.403329   2.533794   3.081686
    12  C    8.003607   1.820858   1.235903   3.837443   4.539515
    13  H    4.573149   5.161688   5.193776   2.183011   1.093642
    14  H    4.515921   6.666826   4.794203   2.171974   3.421477
    15  H    2.701533   7.628744   7.427955   3.440988   2.161036
    16  H    2.579506   8.739448   7.180220   3.451103   3.903749
    17  H    6.159001   4.395412   2.479034   2.167473   3.475251
    18  H    6.540408   2.947559   3.346550   2.843948   2.854981
    19  H    0.977398   9.590217   8.929893   4.632473   3.841045
    20  C    8.978606   1.831245   4.081541   5.393714   5.304130
    21  H   10.000814   2.374030   4.899934   6.490268   6.347982
    22  H    8.508400   2.456955   4.355131   5.102315   4.893883
    23  H    8.507552   2.456953   4.355177   5.101622   4.892922
                    6          7          8          9         10
     6  C    0.000000
     7  C    2.800423   0.000000
     8  C    1.392114   2.443708   0.000000
     9  C    2.421083   1.413508   1.410050   0.000000
    10  C    2.470519   3.796968   3.762232   4.283846   0.000000
    11  C    3.774151   4.470637   4.979563   5.264714   1.365850
    12  C    4.895734   5.924282   6.205843   6.645445   2.443616
    13  H    3.428038   2.143138   3.904494   3.412771   2.781997
    14  H    1.094824   3.895246   2.151689   3.411879   2.666357
    15  H    3.895500   1.095092   3.434920   2.176397   4.686876
    16  H    2.171118   3.428869   1.092924   2.164302   4.641057
    17  H    2.624606   4.616893   4.015763   4.837331   1.098414
    18  H    4.236594   4.208427   5.253771   5.245522   2.150403
    19  H    4.336123   2.460324   3.186593   1.917468   6.072662
    20  C    6.767076   6.572494   7.810331   7.730741   4.481691
    21  H    7.866699   7.578457   8.898892   8.776903   5.572572
    22  H    6.484233   6.106969   7.452290   7.294360   4.339125
    23  H    6.483664   6.105995   7.451629   7.293530   4.338616
                   11         12         13         14         15
    11  C    0.000000
    12  C    1.464879   0.000000
    13  H    2.813606   4.250123   0.000000
    14  H    4.031251   4.885217   4.336739   0.000000
    15  H    5.152500   6.616639   2.467462   4.990324   0.000000
    16  H    5.926461   7.064628   4.997187   2.496432   4.329925
    17  H    2.095107   2.581934   3.859532   2.346241   5.590579
    18  H    1.091794   2.210880   2.219487   4.721514   4.683702
    19  H    6.896205   8.332703   4.549581   5.297033   2.302835
    20  C    3.127022   2.951361   4.441095   7.144957   6.821707
    21  H    4.212304   3.872389   5.436106   8.237972   7.749785
    22  H    3.071038   3.192024   4.002099   6.938760   6.307454
    23  H    3.070462   3.191920   4.000940   6.938355   6.306369
                   16         17         18         19         20
    16  H    0.000000
    17  H    4.701599   0.000000
    18  H    6.285723   3.087882   0.000000
    19  H    3.536269   6.717514   6.667770   0.000000
    20  C    8.840943   5.151056   2.556894   8.989163   0.000000
    21  H    9.934982   6.203384   3.649259   9.964059   1.099970
    22  H    8.495649   5.098560   2.364969   8.483489   1.099047
    23  H    8.495056   5.098277   2.363936   8.482563   1.099047
                   21         22         23
    21  H    0.000000
    22  H    1.787069   0.000000
    23  H    1.787071   1.808892   0.000000
 Symmetry turned off by external request.
 Stoichiometry    C10H10O2S
 Framework group  C1[X(C10H10O2S)]
 Deg. of freedom    63
 Full point group                 C1      NOp   1
 Rotational constants (GHZ):      2.0082817      0.2491042      0.2219363
 Standard basis: 6-31G(d,p) (6D, 7F)
 Integral buffers will be    131072 words long.
 Raffenetti 2 integral format.
 Two-electron integral symmetry is turned off.
   249 basis functions,   458 primitive gaussians,   249 cartesian basis functions
    51 alpha electrons       51 beta electrons
       nuclear repulsion energy       780.0801625879 Hartrees.
 NAtoms=   23 NActive=   23 NUniq=   23 SFac= 7.50D-01 NAtFMM=   80 NAOKFM=F Big=F
 Standard density basis: Auto (5D, 7F)
  1160 Density fitting functions
 One-electron integrals computed using PRISM.
 NBasis=   249 RedAO= T  NBF=   249
 NBsUse=   249 1.00D-06 NBFU=   249
 NBasis=      249 NBas6D=      249 NTT=       31125   NTT6D=    31125
 NDBShl=      198 NDBF=       1160 NDBF6D=     1341  NNucDB=        0
 IDenFi=        2 ISolve=        0 FullAP=F BlkAPC=T NucTyp=        0
 TolInv= 1.00D-05 TolIt=  1.00D-10 IR12=0.
 Symmetry not used in FoFDir.
 MinBra= 0 MaxBra= 3 Meth= 1.
 IRaf=       0 NMat=   1 IRICut=       1 DoRegI=T DoRafI=F ISym2E= 0 JSym2E=0.
  NDBF=  1160  NBFD=  1160
 NRank=  1154 NBFDU=  1154
 S*AI*S=  8.53340386860    
 Harris functional with IExCor= 1009 diagonalized for initial guess.
 ExpMin= 1.17D-01 ExpMax= 2.19D+04 ExpMxC= 3.30D+03 IAcc=1 IRadAn=         1 AccDes= 0.00D+00
 HarFok:  IExCor= 1009 AccDes= 0.00D+00 IRadAn=         1 IDoV= 1
 ScaDFX=  1.000000  1.000000  1.000000  1.000000
 FoFCou: FMM=F IPFlag=           0 FMFlag=      100000 FMFlg1=           0
         NFxFlg=           0 DoJE=T BraDBF=F KetDBF=T FulRan=T
         Omega=  0.000000  0.000000  1.000000  0.000000  0.000000 ICntrl=     500 IOpCl=  0
         NMat0=    1 NMatS0=    1 NMatT0=    0 NMatD0=    1 NMtDS0=    0 NMtDT0=    0
         I1Cent=           4 NGrid=           0.
 Symmetry not used in FoFCou.
 Requested convergence on RMS density matrix=1.00D-08 within 128 cycles.
 Requested convergence on MAX density matrix=1.00D-06.
 Requested convergence on             energy=1.00D-06.
 No special actions if energy rises.
 FoFCou: FMM=F IPFlag=           0 FMFlag=      100000 FMFlg1=           0
         NFxFlg=           0 DoJE=T BraDBF=T KetDBF=F FulRan=T
         Omega=  0.000000  0.000000  1.000000  0.000000  0.000000 ICntrl=     500 IOpCl=  0
         NMat0=    1 NMatS0=    1 NMatT0=    0 NMatD0=    1 NMtDS0=    0 NMtDT0=    0
         I1Cent=           5 NGrid=           0.
 Symmetry not used in FoFCou.
 EnCoef did     1 forward-backward iterations
 Initial convergence to 1.0D-05 achieved.  Increase integral accuracy.
 SCF Done:  E(RPBE-PBE) =  -934.890993106     A.U. after   18 cycles
             Convg  =    0.2766D-08             -V/T =  2.0070
 ExpMin= 1.17D-01 ExpMax= 2.19D+04 ExpMxC= 3.30D+03 IAcc=1 IRadAn=         1 AccDes= 0.00D+00
 HarFok:  IExCor=  205 AccDes= 0.00D+00 IRadAn=         1 IDoV=-2
 ScaDFX=  1.000000  1.000000  1.000000  1.000000
 Range of M.O.s used for correlation:    18   249
 NBasis=   249 NAE=    51 NBE=    51 NFC=    17 NFV=     0
 NROrb=    232 NOA=    34 NOB=    34 NVA=   198 NVB=   198

 **** Warning!!: The smallest alpha delta epsilon is  0.99414279D-01

    40 initial guesses have been made.
 Convergence on wavefunction:    0.000001000000000
 Iteration     1 Dimension    40 NMult    40
 CISAX will form    40 AO SS matrices at one time.
 New state      1 was old state      2
 New state      2 was old state      3
 New state      3 was old state      1
 New state      4 was old state      5
 New state      5 was old state      6
 New state      6 was old state      7
 New state      7 was old state      4
 New state      8 was old state     10
 New state      9 was old state     12
 New state     10 was old state      8
 Iteration     2 Dimension    80 NMult    80
 New state      8 was old state     10
 New state      9 was old state      8
 New state     10 was old state      9
 Iteration     3 Dimension    90 NMult    90
 Iteration     4 Dimension   100 NMult   100
 Iteration     5 Dimension   110 NMult   110
 Iteration     6 Dimension   120 NMult   120
 Iteration     7 Dimension   130 NMult   130
 Iteration     8 Dimension   140 NMult   140
 Iteration     9 Dimension   150 NMult   150
 Iteration    10 Dimension   160 NMult   160
 Iteration    11 Dimension   170 NMult   170
 Iteration    12 Dimension   180 NMult   180
 Iteration    13 Dimension   190 NMult   190
 Iteration    14 Dimension   200 NMult   200
 Davidson failed to converge within maximum sub-space dimensions.
  Restart with updated initial guess:
 Iteration     1 Dimension    20 NMult   220
 Iteration     2 Dimension    30 NMult   230
 Iteration     3 Dimension    40 NMult   240
 Iteration     4 Dimension    50 NMult   250
 Iteration     5 Dimension    60 NMult   260
 Iteration     6 Dimension    70 NMult   270
 Iteration     7 Dimension    80 NMult   280
 Iteration     8 Dimension    90 NMult   290
 Iteration     9 Dimension   100 NMult   300
 Iteration    10 Dimension   110 NMult   310
 Iteration    11 Dimension   120 NMult   320
 Iteration    12 Dimension   130 NMult   330
 Iteration    13 Dimension   137 NMult   337
 Iteration    14 Dimension   142 NMult   342
 Iteration    15 Dimension   148 NMult   348
 Iteration    16 Dimension   153 NMult   353
 Iteration    17 Dimension   156 NMult   356
 Iteration    18 Dimension   158 NMult   358
 ***********************************************************************
 Excited states from <AA,BB:AA,BB> singles matrix:
 ***********************************************************************
 
 Ground to excited state transition electric dipole moments (Au):
       state          X           Y           Z        Dip. S.      Osc.
         1        -0.0001      0.0001      0.0081      0.0001      0.0000
         2         1.1916     -0.2709     -0.0001      1.4933      0.1167
         3         2.4824      0.3477     -0.0003      6.2830      0.5655
         4         0.1274      0.0455      0.0000      0.0183      0.0018
         5         0.0001     -0.0002     -0.0069      0.0000      0.0000
         6        -0.1231      0.1123      0.0000      0.0278      0.0028
         7        -0.4868      0.5239      0.0001      0.5115      0.0584
         8        -1.2952      0.1848      0.0002      1.7116      0.2030
         9         0.0001     -0.0001     -0.0224      0.0005      0.0001
        10        -0.0003      0.0000      0.0449      0.0020      0.0003
 Ground to excited state transition velocity dipole moments (Au):
       state          X           Y           Z        Dip. S.      Osc.
         1         0.0000      0.0000      0.0074      0.0001      0.0003
         2        -0.1204      0.0329      0.0000      0.0156      0.0886
         3        -0.3265     -0.0492      0.0000      0.1090      0.5382
         4        -0.0222     -0.0105      0.0000      0.0006      0.0027
         5         0.0000      0.0000      0.0044      0.0000      0.0001
         6         0.0180     -0.0186      0.0000      0.0007      0.0029
         7         0.0735     -0.0919      0.0000      0.0138      0.0539
         8         0.2336     -0.0293      0.0000      0.0554      0.2078
         9         0.0000      0.0000     -0.0009      0.0000      0.0000
        10         0.0001      0.0000     -0.0002      0.0000      0.0000
 Ground to excited state transition magnetic dipole moments (Au):
       state          X           Y           Z
         1        -0.1301     -0.4879      0.0002
         2        -0.0001     -0.0003     -0.4991
         3        -0.0001      0.0000     -0.6791
         4         0.0000      0.0000      0.1720
         5         0.0259      0.1167      0.0001
         6         0.0000      0.0003     -0.1061
         7        -0.0001      0.0001     -0.6794
         8         0.0000      0.0000      0.3365
         9         0.0753      0.6307     -0.0002
        10         0.1338     -0.0662      0.0001
 <0|del|b> * <b|rxdel|0> + <0|del|b> * <b|delr+rdel|0>
 Rotatory Strengths (R) in cgs (10**-40 erg-esu-cm/Gauss)
       state          XX          YY          ZZ    R(velocity)
         1         0.0284     -0.0018      0.0191      0.0153
 Total R(velocity) tensor for State=          1
                 1             2             3 
      1   0.283739D-01  0.173360D-01 -0.350494D-05
      2  -0.484079D-02 -0.175724D-02  0.292652D-05
      3   0.327783D+01  0.120750D+02  0.191335D-01
         2        -0.0608      0.0219      0.0159     -0.0077
 Total R(velocity) tensor for State=          2
                 1             2             3 
      1  -0.607915D-01 -0.110237D+00 -0.266778D+03
      2   0.641067D-02  0.218606D-01  0.382597D+01
      3  -0.476867D+01 -0.174598D+02  0.159194D-01
         3        -0.0811      0.0223      0.0422     -0.0055
 Total R(velocity) tensor for State=          3
                 1             2             3 
      1  -0.811197D-01  0.631136D-01 -0.623853D+03
      2  -0.655554D-02  0.222802D-01 -0.278685D+02
      3   0.220109D+01 -0.146105D+02  0.422273D-01
         4         0.0000     -0.0001     -0.0015     -0.0005
 Total R(velocity) tensor for State=          4
                 1             2             3 
      1   0.346001D-04  0.135768D-02  0.594626D+01
      2   0.541227D-03 -0.105322D-03  0.429269D+01
      3  -0.245461D-01  0.516096D-01 -0.147624D-02
         5         0.0087      0.0010      0.0081      0.0059
 Total R(velocity) tensor for State=          5
                 1             2             3 
      1   0.874626D-02  0.594969D-03  0.148403D-04
      2  -0.265691D-02  0.961174D-03 -0.128580D-04
      3  -0.254270D+00 -0.118788D+01  0.812806D-02
         6        -0.0121     -0.0004     -0.0092     -0.0072
 Total R(velocity) tensor for State=          6
                 1             2             3 
      1  -0.120617D-01 -0.916953D-02  0.616303D+01
      2   0.234164D-02 -0.369729D-03 -0.642555D+01
      3  -0.478988D+00 -0.464765D+00 -0.919389D-02
         7         0.0145      0.0057     -0.0131      0.0024
 Total R(velocity) tensor for State=          7
                 1             2             3 
      1   0.145260D-01 -0.672527D-02  0.844047D+02
      2  -0.358516D-02  0.568980D-02 -0.393814D+02
      3  -0.872314D+00 -0.697314D+00 -0.130593D-01
         8        -0.0084     -0.0039     -0.0095     -0.0072
 Total R(velocity) tensor for State=          8
                 1             2             3 
      1  -0.836850D-02  0.134438D-01 -0.753742D+02
      2   0.291858D-02 -0.389598D-02  0.255428D+02
      3  -0.261056D+00 -0.208403D+01 -0.945703D-02
         9         0.0257     -0.0020      0.0198      0.0145
 Total R(velocity) tensor for State=          9
                 1             2             3 
      1   0.257426D-01  0.191792D-01 -0.104231D-04
      2  -0.231432D-02 -0.202862D-02 -0.603568D-05
      3   0.139622D+00  0.972729D+00  0.198451D-01
        10        -0.0010      0.0252      0.0142      0.0128
 Total R(velocity) tensor for State=         10
                 1             2             3 
      1  -0.967321D-03  0.186656D-01 -0.146799D-04
      2  -0.127425D-02  0.251684D-01 -0.499058D-05
      3   0.289354D-01 -0.178596D-02  0.142022D-01
 1/2[<0|r|b>*<b|rxdel|0> + (<0|rxdel|b>*<b|r|0>)*]
 Rotatory Strengths (R) in cgs (10**-40 erg-esu-cm/Gauss)
       state          XX          YY          ZZ     R(length)     R(au)
         1        -0.0127      0.0428     -0.0010      0.0097      0.0000
         2         0.0911     -0.0578     -0.0468     -0.0045      0.0000
         3         0.1207     -0.0009     -0.1381     -0.0061      0.0000
         4        -0.0028     -0.0002      0.0021     -0.0003      0.0000
         5        -0.0013      0.0161      0.0004      0.0051      0.0000
         6         0.0037     -0.0199     -0.0010     -0.0057      0.0000
         7        -0.0197     -0.0307      0.0568      0.0021      0.0000
         8         0.0197     -0.0001     -0.0411     -0.0071      0.0000
         9        -0.0063      0.0367     -0.0025      0.0093      0.0000
        10         0.0328     -0.0007     -0.0032      0.0096      0.0000
  1/2[<0|del|b>*<b|r|0> + (<0|r|b>*<b|del|0>)*] (Au)
       state          X           Y           Z        Dip. S.   Osc.(frdel)
         1         0.0000      0.0000      0.0001     -0.0001      0.0000
         2        -0.1434     -0.0089      0.0000      0.1523      0.1015
         3        -0.8104     -0.0171      0.0000      0.8275      0.5517
         4        -0.0028     -0.0005      0.0000      0.0033      0.0022
         5         0.0000      0.0000      0.0000      0.0000      0.0000
         6        -0.0022     -0.0021      0.0000      0.0043      0.0029
         7        -0.0358     -0.0481      0.0000      0.0839      0.0559
         8        -0.3026     -0.0054      0.0000      0.3080      0.2053
         9         0.0000      0.0000      0.0000      0.0000      0.0000
        10         0.0000      0.0000      0.0000      0.0000      0.0000
 Ground to excited state transition densities written to RWF  633

 Excitation energies and oscillator strengths:
 
 Excited state symmetry could not be determined.
 Excited State   1:      Singlet-?Sym    2.9448 eV  421.03 nm  f=0.0000  <S**2>=0.000
      50 -> 52         0.70672
 
 Excited state symmetry could not be determined.
 Excited State   2:      Singlet-?Sym    3.1888 eV  388.82 nm  f=0.1167  <S**2>=0.000
      49 -> 52         0.59194
      51 -> 52         0.36994
 
 Excited state symmetry could not be determined.
 Excited State   3:      Singlet-?Sym    3.6736 eV  337.50 nm  f=0.5655  <S**2>=0.000
      47 -> 52         0.12964
      49 -> 52        -0.35357
      51 -> 52         0.58184
      51 -> 54        -0.12190
 
 Excited state symmetry could not be determined.
 Excited State   4:      Singlet-?Sym    4.0637 eV  305.10 nm  f=0.0018  <S**2>=0.000
      48 -> 52         0.55085
      51 -> 53         0.42998
 
 Excited state symmetry could not be determined.
 Excited State   5:      Singlet-?Sym    4.1353 eV  299.82 nm  f=0.0000  <S**2>=0.000
      50 -> 53         0.70702
 This state for optimization and/or second-order correction.
 Copying the excited state density for this state as the 1-particle RhoCI density.
 
 Excited state symmetry could not be determined.
 Excited State   6:      Singlet-?Sym    4.1861 eV  296.18 nm  f=0.0028  <S**2>=0.000
      48 -> 52        -0.21144
      49 -> 53         0.65582
      51 -> 53         0.15063
 
 Excited state symmetry could not be determined.
 Excited State   7:      Singlet-?Sym    4.6576 eV  266.20 nm  f=0.0584  <S**2>=0.000
      47 -> 52        -0.16530
      48 -> 52        -0.34714
      48 -> 54         0.18037
      49 -> 53        -0.22869
      51 -> 53         0.49379
 
 Excited state symmetry could not be determined.
 Excited State   8:      Singlet-?Sym    4.8409 eV  256.12 nm  f=0.2030  <S**2>=0.000
      47 -> 52         0.57052
      48 -> 52        -0.10179
      49 -> 54         0.16069
      51 -> 52        -0.15697
      51 -> 53         0.11948
      51 -> 54        -0.27517
 
 Excited state symmetry could not be determined.
 Excited State   9:      Singlet-?Sym    5.0896 eV  243.60 nm  f=0.0001  <S**2>=0.000
      50 -> 54         0.70467
 
 Excited state symmetry could not be determined.
 Excited State  10:      Singlet-?Sym    5.1526 eV  240.63 nm  f=0.0003  <S**2>=0.000
      46 -> 52         0.70481
 SavETr:  write IOETrn=   770 NScale= 10 NData=  16 NLR=1 LETran=     190.
          IDoAtm=11111111111111111111111
          Differentiating once with respect to electric field.
                with respect to dipole field.
          Differentiating once with respect to nuclear coordinates.
          There are     1 degrees of freedom in the 1st order CPHF.  IDoFFX=0.
 FoFCou: FMM=F IPFlag=           0 FMFlag=      100000 FMFlg1=           0
         NFxFlg=           0 DoJE=T BraDBF=T KetDBF=F FulRan=T
         Omega=  0.000000  0.000000  1.000000  0.000000  0.000000 ICntrl=     500 IOpCl=  0
         NMat0=    1 NMatS0=    1 NMatT0=    0 NMatD0=    1 NMtDS0=    0 NMtDT0=    0
         I1Cent=           5 NGrid=           0.
 Symmetry not used in FoFCou.
 LinEq1:  Iter=  0 NonCon=     1 RMS=5.36D-02 Max=3.63D+00
 AX will form     1 AO Fock derivatives at one time.
 LinEq1:  Iter=  1 NonCon=     1 RMS=3.82D-02 Max=1.83D+00
 LinEq1:  Iter=  2 NonCon=     1 RMS=1.97D-02 Max=5.24D-01
 LinEq1:  Iter=  3 NonCon=     1 RMS=2.29D-02 Max=7.78D-01
 LinEq1:  Iter=  4 NonCon=     1 RMS=1.29D-02 Max=3.91D-01
 LinEq1:  Iter=  5 NonCon=     1 RMS=9.47D-03 Max=2.10D-01
 LinEq1:  Iter=  6 NonCon=     1 RMS=6.23D-03 Max=2.15D-01
 LinEq1:  Iter=  7 NonCon=     1 RMS=4.86D-03 Max=1.74D-01
 LinEq1:  Iter=  8 NonCon=     1 RMS=3.87D-03 Max=1.43D-01
 LinEq1:  Iter=  9 NonCon=     1 RMS=2.99D-03 Max=9.27D-02
 LinEq1:  Iter= 10 NonCon=     1 RMS=2.03D-03 Max=7.39D-02
 LinEq1:  Iter= 11 NonCon=     1 RMS=2.00D-03 Max=6.27D-02
 LinEq1:  Iter= 12 NonCon=     1 RMS=1.01D-03 Max=4.03D-02
 LinEq1:  Iter= 13 NonCon=     1 RMS=6.92D-04 Max=2.12D-02
 LinEq1:  Iter= 14 NonCon=     1 RMS=3.17D-04 Max=6.73D-03
 LinEq1:  Iter= 15 NonCon=     1 RMS=1.72D-04 Max=4.51D-03
 LinEq1:  Iter= 16 NonCon=     1 RMS=9.78D-05 Max=1.75D-03
 LinEq1:  Iter= 17 NonCon=     1 RMS=5.18D-05 Max=1.43D-03
 LinEq1:  Iter= 18 NonCon=     1 RMS=3.05D-05 Max=5.54D-04
 LinEq1:  Iter= 19 NonCon=     1 RMS=1.05D-05 Max=3.00D-04
 LinEq1:  Iter= 20 NonCon=     1 RMS=8.19D-06 Max=1.80D-04
 LinEq1:  Iter= 21 NonCon=     1 RMS=2.92D-06 Max=6.13D-05
 LinEq1:  Iter= 22 NonCon=     1 RMS=1.42D-06 Max=3.95D-05
 LinEq1:  Iter= 23 NonCon=     1 RMS=8.53D-07 Max=1.21D-05
 LinEq1:  Iter= 24 NonCon=     1 RMS=1.46D-07 Max=2.77D-06
 LinEq1:  Iter= 25 NonCon=     1 RMS=2.88D-08 Max=5.21D-07
 LinEq1:  Iter= 26 NonCon=     1 RMS=5.72D-09 Max=1.21D-07
 LinEq1:  Iter= 27 NonCon=     1 RMS=1.24D-09 Max=3.15D-08
 LinEq1:  Iter= 28 NonCon=     1 RMS=4.50D-10 Max=1.34D-08
 LinEq1:  Iter= 29 NonCon=     1 RMS=1.07D-10 Max=1.55D-09
 LinEq1:  Iter= 30 NonCon=     0 RMS=2.69D-11 Max=3.44D-10
 Linear equations converged to 1.000D-10 1.000D-09 after    30 iterations.
 End of Minotr Frequency-dependent properties file   721 does not exist.
 End of Minotr Frequency-dependent properties file   722 does not exist.

 **********************************************************************

            Population analysis using the SCF density.

 **********************************************************************

 Alpha  occ. eigenvalues --  -88.06483 -18.82815 -18.75000  -9.98949  -9.98269
 Alpha  occ. eigenvalues --   -9.93132  -9.92564  -9.92410  -9.92384  -9.92351
 Alpha  occ. eigenvalues --   -9.92194  -9.91569  -9.91156  -7.67461  -5.69872
 Alpha  occ. eigenvalues --   -5.69333  -5.68751  -0.99287  -0.93030  -0.79064
 Alpha  occ. eigenvalues --   -0.73110  -0.71305  -0.69245  -0.67032  -0.60853
 Alpha  occ. eigenvalues --   -0.58160  -0.57377  -0.52759  -0.50671  -0.46862
 Alpha  occ. eigenvalues --   -0.45196  -0.42741  -0.41141  -0.40029  -0.38865
 Alpha  occ. eigenvalues --   -0.38686  -0.38286  -0.37704  -0.35647  -0.35056
 Alpha  occ. eigenvalues --   -0.34517  -0.34015  -0.32234  -0.31930  -0.30377
 Alpha  occ. eigenvalues --   -0.28253  -0.25415  -0.24133  -0.20211  -0.19993
 Alpha  occ. eigenvalues --   -0.19471
 Alpha virt. eigenvalues --   -0.09529  -0.04806  -0.01501   0.01574   0.02298
 Alpha virt. eigenvalues --    0.04602   0.04736   0.05251   0.07024   0.09715
 Alpha virt. eigenvalues --    0.10377   0.11527   0.11795   0.12106   0.13279
 Alpha virt. eigenvalues --    0.14870   0.17816   0.18971   0.21448   0.23383
 Alpha virt. eigenvalues --    0.25492   0.26259   0.28341   0.28888   0.31936
 Alpha virt. eigenvalues --    0.33220   0.36326   0.36686   0.37687   0.39969
 Alpha virt. eigenvalues --    0.45752   0.46109   0.46395   0.47195   0.47820
 Alpha virt. eigenvalues --    0.49725   0.50348   0.52245   0.52927   0.53538
 Alpha virt. eigenvalues --    0.53702   0.54165   0.54461   0.54909   0.56385
 Alpha virt. eigenvalues --    0.57880   0.58832   0.60359   0.60897   0.64852
 Alpha virt. eigenvalues --    0.66205   0.66763   0.67192   0.72118   0.72155
 Alpha virt. eigenvalues --    0.73912   0.74770   0.75506   0.77624   0.77774
 Alpha virt. eigenvalues --    0.78229   0.80267   0.80707   0.80919   0.81717
 Alpha virt. eigenvalues --    0.82262   0.84900   0.85522   0.87693   0.88206
 Alpha virt. eigenvalues --    0.89688   0.90493   0.91436   0.92294   0.94930
 Alpha virt. eigenvalues --    0.96070   0.98392   0.99375   1.02243   1.04494
 Alpha virt. eigenvalues --    1.07121   1.09515   1.11573   1.12758   1.14145
 Alpha virt. eigenvalues --    1.15981   1.18301   1.20204   1.24116   1.25164
 Alpha virt. eigenvalues --    1.25284   1.28398   1.31012   1.31314   1.31424
 Alpha virt. eigenvalues --    1.32609   1.35270   1.37138   1.38244   1.40149
 Alpha virt. eigenvalues --    1.41996   1.49407   1.49842   1.51037   1.58685
 Alpha virt. eigenvalues --    1.62088   1.65794   1.67256   1.70452   1.70738
 Alpha virt. eigenvalues --    1.70982   1.77370   1.77533   1.78368   1.80267
 Alpha virt. eigenvalues --    1.82093   1.82992   1.83466   1.86549   1.87122
 Alpha virt. eigenvalues --    1.87353   1.91835   1.93188   1.93864   1.96174
 Alpha virt. eigenvalues --    1.96579   1.97168   1.98705   2.01349   2.04119
 Alpha virt. eigenvalues --    2.07482   2.08561   2.11550   2.14337   2.18138
 Alpha virt. eigenvalues --    2.18706   2.22821   2.22939   2.24707   2.25954
 Alpha virt. eigenvalues --    2.26133   2.29131   2.30672   2.31678   2.37628
 Alpha virt. eigenvalues --    2.38767   2.38943   2.40182   2.40254   2.42087
 Alpha virt. eigenvalues --    2.44816   2.47576   2.49809   2.51322   2.51467
 Alpha virt. eigenvalues --    2.52911   2.54867   2.55889   2.58813   2.59999
 Alpha virt. eigenvalues --    2.63739   2.66628   2.69322   2.70973   2.71963
 Alpha virt. eigenvalues --    2.73613   2.78452   2.80826   2.84711   2.87481
 Alpha virt. eigenvalues --    2.91274   2.94704   3.01828   3.06051   3.08226
 Alpha virt. eigenvalues --    3.14236   3.19886   3.24570   3.30073   3.32584
 Alpha virt. eigenvalues --    3.32825   3.39376   3.39924   3.46754   3.72193
 Alpha virt. eigenvalues --    3.85205   3.90770   3.94060   4.00722   4.06045
 Alpha virt. eigenvalues --    4.08905   4.16574   4.23716   4.32595   4.32855
 Alpha virt. eigenvalues --    4.35293   4.49149   4.74528
          Condensed to atoms (all electrons):
              1          2          3          4          5          6
     1  O    8.056318   0.000000   0.000000   0.000140   0.004858   0.003200
     2  S    0.000000  15.672757  -0.059750   0.000134   0.000003  -0.000002
     3  O    0.000000  -0.059750   8.034514   0.001351   0.000002  -0.000031
     4  C    0.000140   0.000134   0.001351   4.756175   0.506575   0.481243
     5  C    0.004858   0.000003   0.000002   0.506575   4.983825  -0.054447
     6  C    0.003200  -0.000002  -0.000031   0.481243  -0.054447   4.989082
     7  C   -0.060873   0.000000   0.000000  -0.021171   0.457170  -0.044098
     8  C   -0.054167   0.000000   0.000000  -0.021938  -0.037049   0.485740
     9  C    0.279210   0.000000   0.000000  -0.033017  -0.008301  -0.018417
    10  C   -0.000001   0.009987   0.001645   0.352600  -0.058456  -0.036723
    11  C    0.000000  -0.115028  -0.086893  -0.034006  -0.014603   0.007576
    12  C    0.000000   0.275101   0.510897   0.007008   0.000275  -0.000258
    13  H   -0.000056   0.000066   0.000002  -0.036075   0.356554   0.006248
    14  H   -0.000057   0.000000   0.000001  -0.044133   0.006027   0.365711
    15  H   -0.006288   0.000000   0.000000   0.003608  -0.028449   0.000675
    16  H   -0.001394   0.000000   0.000000   0.003924   0.000244  -0.033931
    17  H    0.000000   0.001052   0.018894  -0.033197   0.006054  -0.010157
    18  H    0.000000  -0.003915   0.002834  -0.009515   0.002442   0.000137
    19  H    0.288196   0.000000   0.000000  -0.000037   0.000743  -0.000188
    20  C    0.000000   0.202214   0.001404  -0.000021  -0.000009   0.000000
    21  H    0.000000  -0.028119  -0.000020   0.000000   0.000000   0.000000
    22  H    0.000000  -0.042185   0.000030   0.000001  -0.000007   0.000000
    23  H    0.000000  -0.042183   0.000030   0.000001  -0.000007   0.000000
              7          8          9         10         11         12
     1  O   -0.060873  -0.054167   0.279210  -0.000001   0.000000   0.000000
     2  S    0.000000   0.000000   0.000000   0.009987  -0.115028   0.275101
     3  O    0.000000   0.000000   0.000000   0.001645  -0.086893   0.510897
     4  C   -0.021171  -0.021938  -0.033017   0.352600  -0.034006   0.007008
     5  C    0.457170  -0.037049  -0.008301  -0.058456  -0.014603   0.000275
     6  C   -0.044098   0.485740  -0.018417  -0.036723   0.007576  -0.000258
     7  C    5.077938  -0.059529   0.471746   0.008246   0.000089  -0.000003
     8  C   -0.059529   4.949269   0.515221   0.007268  -0.000321   0.000001
     9  C    0.471746   0.515221   4.596759   0.000436   0.000020   0.000000
    10  C    0.008246   0.007268   0.000436   5.055797   0.474237  -0.002660
    11  C    0.000089  -0.000321   0.000020   0.474237   5.321458   0.279304
    12  C   -0.000003   0.000001   0.000000  -0.002660   0.279304   4.792854
    13  H   -0.039873   0.000308   0.003931  -0.013984   0.004539   0.000064
    14  H    0.000331  -0.040697   0.004803  -0.009790   0.000249  -0.000005
    15  H    0.353735   0.004808  -0.047523  -0.000192   0.000006   0.000000
    16  H    0.006346   0.357060  -0.038501  -0.000152   0.000002   0.000000
    17  H   -0.000165   0.000293  -0.000002   0.362442  -0.067915  -0.009066
    18  H    0.000011   0.000007  -0.000007  -0.049335   0.360065  -0.039895
    19  H   -0.006428   0.006662  -0.035989  -0.000001   0.000000   0.000000
    20  C    0.000000   0.000000   0.000000   0.000031   0.003204  -0.007990
    21  H    0.000000   0.000000   0.000000   0.000003   0.000043   0.001541
    22  H    0.000000   0.000000   0.000000  -0.000084   0.000715  -0.003297
    23  H    0.000000   0.000000   0.000000  -0.000084   0.000711  -0.003299
             13         14         15         16         17         18
     1  O   -0.000056  -0.000057  -0.006288  -0.001394   0.000000   0.000000
     2  S    0.000066   0.000000   0.000000   0.000000   0.001052  -0.003915
     3  O    0.000002   0.000001   0.000000   0.000000   0.018894   0.002834
     4  C   -0.036075  -0.044133   0.003608   0.003924  -0.033197  -0.009515
     5  C    0.356554   0.006027  -0.028449   0.000244   0.006054   0.002442
     6  C    0.006248   0.365711   0.000675  -0.033931  -0.010157   0.000137
     7  C   -0.039873   0.000331   0.353735   0.006346  -0.000165   0.000011
     8  C    0.000308  -0.040697   0.004808   0.357060   0.000293   0.000007
     9  C    0.003931   0.004803  -0.047523  -0.038501  -0.000002  -0.000007
    10  C   -0.013984  -0.009790  -0.000192  -0.000152   0.362442  -0.049335
    11  C    0.004539   0.000249   0.000006   0.000002  -0.067915   0.360065
    12  C    0.000064  -0.000005   0.000000   0.000000  -0.009066  -0.039895
    13  H    0.619744  -0.000174  -0.006834   0.000015   0.000031   0.004731
    14  H   -0.000174   0.604432   0.000015  -0.006714   0.007090   0.000007
    15  H   -0.006834   0.000015   0.623825  -0.000171   0.000002   0.000007
    16  H    0.000015  -0.006714  -0.000171   0.596269  -0.000008   0.000000
    17  H    0.000031   0.007090   0.000002  -0.000008   0.587229   0.005786
    18  H    0.004731   0.000007   0.000007   0.000000   0.005786   0.628269
    19  H   -0.000018   0.000006   0.007098  -0.000339   0.000000   0.000000
    20  C   -0.000026   0.000000   0.000000   0.000000  -0.000022   0.000267
    21  H    0.000001   0.000000   0.000000   0.000000   0.000000   0.000109
    22  H    0.000006   0.000000   0.000000   0.000000  -0.000003   0.002326
    23  H    0.000007   0.000000   0.000000   0.000000  -0.000003   0.002337
             19         20         21         22         23
     1  O    0.288196   0.000000   0.000000   0.000000   0.000000
     2  S    0.000000   0.202214  -0.028119  -0.042185  -0.042183
     3  O    0.000000   0.001404  -0.000020   0.000030   0.000030
     4  C   -0.000037  -0.000021   0.000000   0.000001   0.000001
     5  C    0.000743  -0.000009   0.000000  -0.000007  -0.000007
     6  C   -0.000188   0.000000   0.000000   0.000000   0.000000
     7  C   -0.006428   0.000000   0.000000   0.000000   0.000000
     8  C    0.006662   0.000000   0.000000   0.000000   0.000000
     9  C   -0.035989   0.000000   0.000000   0.000000   0.000000
    10  C   -0.000001   0.000031   0.000003  -0.000084  -0.000084
    11  C    0.000000   0.003204   0.000043   0.000715   0.000711
    12  C    0.000000  -0.007990   0.001541  -0.003297  -0.003299
    13  H   -0.000018  -0.000026   0.000001   0.000006   0.000007
    14  H    0.000006   0.000000   0.000000   0.000000   0.000000
    15  H    0.007098   0.000000   0.000000   0.000000   0.000000
    16  H   -0.000339   0.000000   0.000000   0.000000   0.000000
    17  H    0.000000  -0.000022   0.000000  -0.000003  -0.000003
    18  H    0.000000   0.000267   0.000109   0.002326   0.002337
    19  H    0.418401   0.000000   0.000000   0.000000   0.000000
    20  C    0.000000   5.218255   0.373269   0.375088   0.375073
    21  H    0.000000   0.373269   0.532993  -0.025011  -0.025005
    22  H    0.000000   0.375088  -0.025011   0.564296  -0.035648
    23  H    0.000000   0.375073  -0.025005  -0.035648   0.564315
 Mulliken atomic charges:
              1
     1  O   -0.509085
     2  S    0.129870
     3  O   -0.424908
     4  C    0.120349
     5  C   -0.123442
     6  C   -0.141359
     7  C   -0.143470
     8  C   -0.112936
     9  C    0.309629
    10  C   -0.101229
    11  C   -0.133452
    12  C    0.199429
    13  H    0.100795
    14  H    0.112899
    15  H    0.095677
    16  H    0.117350
    17  H    0.131667
    18  H    0.093333
    19  H    0.321894
    20  C   -0.540738
    21  H    0.170195
    22  H    0.163775
    23  H    0.163758
 Sum of Mulliken atomic charges =   0.00000
 Mulliken charges with hydrogens summed into heavy atoms:
              1
     1  O   -0.187192
     2  S    0.129870
     3  O   -0.424908
     4  C    0.120349
     5  C   -0.022647
     6  C   -0.028460
     7  C   -0.047793
     8  C    0.004414
     9  C    0.309629
    10  C    0.030438
    11  C   -0.040118
    12  C    0.199429
    20  C   -0.043010
 Sum of Mulliken charges with hydrogens summed into heavy atoms =   0.00000
 Electronic spatial extent (au):  <R**2>=           4513.0570
 Charge=              0.0000 electrons
 Dipole moment (field-independent basis, Debye):
    X=              4.6925    Y=              4.9506    Z=             -0.0013  Tot=              6.8212
 Quadrupole moment (field-independent basis, Debye-Ang):
   XX=            -85.0177   YY=            -73.6787   ZZ=            -85.9087
   XY=             -5.2958   XZ=              0.0034   YZ=              0.0013
 Traceless Quadrupole moment (field-independent basis, Debye-Ang):
   XX=             -3.4827   YY=              7.8563   ZZ=             -4.3737
   XY=             -5.2958   XZ=              0.0034   YZ=              0.0013
 Octapole moment (field-independent basis, Debye-Ang**2):
  XXX=             91.5462  YYY=             20.3983  ZZZ=             -0.0257  XYY=             36.8333
  XXY=             86.1514  XXZ=             -0.0258  XZZ=             -1.5546  YZZ=              0.1643
  YYZ=             -0.0121  XYZ=             -0.0045
 Hexadecapole moment (field-independent basis, Debye-Ang**3):
 XXXX=          -5056.3429 YYYY=           -719.6989 ZZZZ=            -95.2424 XXXY=            103.8767
 XXXZ=              0.3126 YYYX=              2.0900 YYYZ=              0.0219 ZZZX=              0.3079
 ZZZY=              0.0034 XXYY=           -786.9589 XXZZ=           -894.1054 YYZZ=           -143.5619
 XXYZ=             -0.0034 YYXZ=              0.0826 ZZXY=             11.5653
 N-N= 7.800801625879D+02 E-N=-3.756134641944D+03  KE= 9.284242730184D+02
 Fitting Gamma and (X+Y) densities for TD-KS first derivatives, JSym2E=0.
 Calling FoFJK, ICntrl=      5527 FMM=F ISym2X=0 I1Cent= 4 IOpClX= 0 NMat=1 NMatS=1 NMatT=0.
 -------------------------------------------------------------------
 Center     Atomic                   Forces (Hartrees/Bohr)
 Number     Number              X              Y              Z
 -------------------------------------------------------------------
      1        8           0.002420679    0.001587932   -0.000000049
      2       16          -0.008314508   -0.005566155    0.000006271
      3        8          -0.014819979   -0.032072139   -0.000025010
      4        6          -0.007024600    0.000415146    0.000003427
      5        6          -0.046654324   -0.004240729    0.000005540
      6        6          -0.040938164   -0.026001136    0.000003743
      7        6           0.037941049    0.024636120   -0.000003660
      8        6           0.047836022    0.010765453   -0.000005747
      9        6          -0.010264046   -0.016329579   -0.000000094
     10        6           0.035466814   -0.006497088   -0.000006877
     11        6          -0.040072373    0.000530327   -0.000007733
     12        6           0.038606508    0.067317383    0.000046088
     13        1          -0.000079648    0.000413060    0.000000212
     14        1          -0.000273887    0.000379399    0.000000052
     15        1           0.000937632   -0.000090852   -0.000000098
     16        1          -0.000238526    0.001602028   -0.000000074
     17        1           0.005049183   -0.000024141   -0.000002799
     18        1          -0.004263497   -0.003890931    0.000000144
     19        1          -0.003700736   -0.000732422    0.000000838
     20        6           0.012339416   -0.006317077   -0.000009503
     21        1          -0.003284672   -0.004570870   -0.000002061
     22        1          -0.000334339   -0.000653715   -0.000039145
     23        1          -0.000334003   -0.000660014    0.000036537
 -------------------------------------------------------------------
 Cartesian Forces:  Max     0.067317383 RMS     0.017027549

 GradGradGradGradGradGradGradGradGradGradGradGradGradGradGradGradGradGrad
 Berny optimization.
 Search for a local minimum.
 Step number   1 out of a maximum of    2
 All quantities printed in internal units (Hartrees-Bohrs-Radians)
 Second derivative matrix not updated -- first step.
     Eigenvalues ---    0.00014   0.00050   0.00088   0.00156   0.00241
     Eigenvalues ---    0.00439   0.00587   0.00841   0.01569   0.01657
     Eigenvalues ---    0.01683   0.02414   0.02549   0.02931   0.03970
     Eigenvalues ---    0.04678   0.05234   0.05687   0.06103   0.06769
     Eigenvalues ---    0.06820   0.07080   0.08071   0.09190   0.09320
     Eigenvalues ---    0.09712   0.11267   0.11611   0.12317   0.12655
     Eigenvalues ---    0.12793   0.14515   0.14961   0.17406   0.19628
     Eigenvalues ---    0.21276   0.25168   0.27215   0.29403   0.32740
     Eigenvalues ---    0.33125   0.34739   0.40343   0.43910   0.46063
     Eigenvalues ---    0.64201   0.67301   0.73594   0.77973   0.80839
     Eigenvalues ---    0.84436   0.89031   0.98893   1.02653   1.11348
     Eigenvalues ---    1.14203   1.24014   1.35917   1.43210   1.51752
     Eigenvalues ---    1.57713   1.67579   1.99920
 Quadratic step=1.071D+00 exceeds max=3.000D-01 adjusted using Lamda=-2.107D-02.
 Angle between NR and scaled steps=  56.85 degrees.
 Angle between quadratic step and forces=  61.67 degrees.
 Linear search not attempted -- first point.
 TrRot= -0.002518  0.005631  0.000018 -0.000576  0.000004 -0.000576
 Variable       Old X    -DE/DX   Delta X   Delta X   Delta X     New X
                                 (Linear)    (Quad)   (Total)
    X1        9.87453   0.00242   0.00000  -0.01659  -0.01776   9.85677
    Y1        1.18017   0.00159   0.00000   0.00174  -0.00398   1.17619
    Z1       -0.00100   0.00000   0.00000   0.00002  -0.00001  -0.00101
    X2       -7.86422  -0.00831   0.00000  -0.01288  -0.01487  -7.87910
    Y2        0.46692  -0.00557   0.00000  -0.01754  -0.00284   0.46408
    Z2        0.00147   0.00001   0.00000   0.00027   0.00032   0.00178
    X3       -5.37035  -0.01482   0.00000  -0.03707  -0.04385  -5.41421
    Y3       -3.77381  -0.03207   0.00000   0.06412   0.07598  -3.69783
    Z3        0.00101  -0.00003   0.00000  -0.00054  -0.00050   0.00051
    X4        2.20520  -0.00702   0.00000  -0.00664  -0.01009   2.19511
    Y4       -0.81103   0.00042   0.00000   0.00190   0.00500  -0.80602
    Z4       -0.00007   0.00000   0.00000  -0.00002  -0.00001  -0.00008
    X5        2.92746  -0.04665   0.00000  -0.05900  -0.05946   2.86800
    Y5        1.77147  -0.00424   0.00000   0.02415   0.02647   1.79795
    Z5        0.00006   0.00001   0.00000  -0.00002  -0.00001   0.00005
    X6        4.15852  -0.04094   0.00000  -0.03724  -0.04288   4.11564
    Y6       -2.64951  -0.02600   0.00000  -0.05614  -0.05525  -2.70476
    Z6       -0.00049   0.00000   0.00000   0.00001   0.00001  -0.00048
    X7        5.46017   0.03794   0.00000   0.01987   0.02025   5.48041
    Y7        2.47994   0.02464   0.00000   0.03886   0.03817   2.51812
    Z7       -0.00023   0.00000   0.00000  -0.00003  -0.00003  -0.00026
    X8        6.69958   0.04784   0.00000   0.04138   0.03656   6.73614
    Y8       -1.96856   0.01077   0.00000  -0.02624  -0.02837  -1.99694
    Z8       -0.00079  -0.00001   0.00000   0.00001   0.00000  -0.00079
    X9        7.36834  -0.01026   0.00000  -0.01303  -0.01488   7.35347
    Y9        0.61076  -0.01633   0.00000  -0.02140  -0.02423   0.58652
    Z9       -0.00067   0.00000   0.00000   0.00000  -0.00001  -0.00068
   X10       -0.40313   0.03547   0.00000   0.03854   0.03413  -0.36900
   Y10       -1.65595  -0.00650   0.00000   0.01156   0.01761  -1.63834
   Z10        0.00021  -0.00001   0.00000  -0.00002   0.00000   0.00021
   X11       -2.54601  -0.04007   0.00000  -0.01215  -0.01488  -2.56090
   Y11       -0.21719   0.00053   0.00000   0.02494   0.03352  -0.18367
   Z11        0.00055  -0.00001   0.00000   0.00013   0.00016   0.00071
   X12       -5.01696   0.03861   0.00000   0.03730   0.03320  -4.98375
   Y12       -1.46518   0.06732   0.00000   0.09322   0.10459  -1.36059
   Z12        0.00075   0.00005   0.00000   0.00043   0.00047   0.00122
   X13        1.48426  -0.00008   0.00000  -0.06247  -0.06122   1.42303
   Y13        3.25078   0.00041   0.00000   0.01733   0.02132   3.27211
   Z13        0.00040   0.00000   0.00000  -0.00002  -0.00001   0.00039
   X14        3.64651  -0.00027   0.00000  -0.05009  -0.05803   3.58848
   Y14       -4.65407   0.00038   0.00000  -0.04818  -0.04668  -4.70076
   Z14       -0.00059   0.00000   0.00000   0.00003   0.00003  -0.00056
   X15        5.98142   0.00094   0.00000   0.04780   0.05048   6.03190
   Y15        4.48264  -0.00009   0.00000   0.02947   0.02816   4.51080
   Z15       -0.00012   0.00000   0.00000  -0.00004  -0.00004  -0.00016
   X16        8.19301  -0.00024   0.00000   0.05619   0.04976   8.24277
   Y16       -3.39518   0.00160   0.00000  -0.00174  -0.00560  -3.40078
   Z16       -0.00113   0.00000   0.00000   0.00002   0.00001  -0.00112
   X17       -0.68606   0.00505   0.00000   0.09015   0.08336  -0.60270
   Y17       -3.71228  -0.00002   0.00000   0.00518   0.01150  -3.70078
   Z17        0.00011   0.00000   0.00000  -0.00005  -0.00003   0.00008
   X18       -2.46718  -0.00426   0.00000  -0.04652  -0.04690  -2.51408
   Y18        1.84450  -0.00389   0.00000   0.01357   0.02209   1.86659
   Z18        0.00066   0.00000   0.00000   0.00012   0.00015   0.00081
   X19       10.07851  -0.00370   0.00000  -0.07609  -0.07514  10.00337
   Y19        3.01589  -0.00073   0.00000   0.00636   0.00047   3.01636
   Z19       -0.00094   0.00000   0.00000   0.00002  -0.00001  -0.00094
   X20       -6.89100   0.01234   0.00000   0.05479   0.05657  -6.83443
   Y20        3.78780  -0.00632   0.00000  -0.06147  -0.04797   3.73983
   Z20        0.00004  -0.00001   0.00000  -0.00015  -0.00010  -0.00006
   X21       -8.65809  -0.00328   0.00000   0.01962   0.02260  -8.63549
   Y21        4.88239  -0.00457   0.00000  -0.10769  -0.09211   4.79028
   Z21        0.00072   0.00000   0.00000  -0.00020  -0.00015   0.00057
   X22       -5.81266  -0.00033   0.00000   0.03419   0.03652  -5.77614
   Y22        4.26425  -0.00065   0.00000  -0.05129  -0.03901   4.22524
   Z22       -1.70984  -0.00004   0.00000  -0.00814  -0.00809  -1.71794
   X23       -5.81077  -0.00033   0.00000   0.03420   0.03654  -5.77423
   Y23        4.26516  -0.00066   0.00000  -0.05111  -0.03884   4.22633
   Z23        1.70847   0.00004   0.00000   0.00781   0.00785   1.71632
         Item               Value     Threshold  Converged?
 Maximum Force            0.067317     0.000450     NO 
 RMS     Force            0.017028     0.000300     NO 
 Maximum Displacement     0.104588     0.001800     NO 
 RMS     Displacement     0.035819     0.001200     NO 
 Predicted change in Energy=-1.104755D-02
 GradGradGradGradGradGradGradGradGradGradGradGradGradGradGradGradGradGrad

 1\1\GINC-CLODOMIRA\Force\RTD-PBEPBE-FC\6-31G(d,p)\C10H10O2S1\DIEGOA\01
 -Nov-2019\0\\# pbepbe/6-31G** force nosymm td(root=5,nstates=10)\\Titl
 e\\0,1\O,5.225377,0.62452,-0.00053\S,-4.161568,0.247084,0.000776\O,-2.
 841869,-1.997013,0.000534\C,1.166939,-0.429177,-0.000036\C,1.549143,0.
 937423,0.000032\C,2.200595,-1.402062,-0.000261\C,2.889395,1.31233,-0.0
 00121\C,3.545264,-1.041719,-0.000419\C,3.899159,0.323198,-0.000356\C,-
 0.213329,-0.876292,0.00011\C,-1.347293,-0.114931,0.000291\C,-2.654859,
 -0.775341,0.000398\H,0.785435,1.72024,0.00021\H,1.92965,-2.46283,-0.00
 0314\H,3.165231,2.372113,-0.000062\H,4.335555,-1.796651,-0.000596\H,-0
 .363049,-1.964454,0.000059\H,-1.305576,0.976066,0.000349\H,5.333318,1.
 595939,-0.000496\C,-3.646559,2.004418,0.000019\H,-4.581666,2.583649,0.
 00038\H,-3.075927,2.256543,-0.90481\H,-3.074927,2.257026,0.904082\\Ver
 sion=EM64L-G09RevA.01\HF=-934.8909931\RMSD=2.766e-09\RMSF=1.703e-02\Di
 pole=-3.8098602,1.4392527,0.0002457\PG=C01 [X(C10H10O2S1)]\\@


 WHEN ALL ELSE FAILS, TRY THE BOSS'S SUGGESTION.
 Job cpu time:  0 days  0 hours 44 minutes 42.6 seconds.
 File lengths (MBytes):  RWF=    175 Int=      0 D2E=      0 Chk=     37 Scr=      1
 Normal termination of Gaussian 09 at Fri Nov  1 11:48:34 2019.
