Title                                                                   
Freq      RCAM-B3LYP                                                  6-31G(d,p)          
Number of atoms                            I                6
Info1-9                                    I   N=           9
          14          14        1002           0           0         100
           6          18           2
Charge                                     I                0
Multiplicity                               I                1
Number of electrons                        I               24
Number of alpha electrons                  I               12
Number of beta electrons                   I               12
Number of basis functions                  I               60
Number of independent functions            I               60
Number of point charges in /Mol/           I                0
Number of translation vectors              I                0
Atomic numbers                             I   N=           6
           6           7           8           1           1           1
Nuclear charges                            R   N=           6
  6.00000000E+00  7.00000000E+00  8.00000000E+00  1.00000000E+00  1.00000000E+00
  1.00000000E+00
Current cartesian coordinates              R   N=          18
 -3.03745677E-01  7.32621472E-01  1.57253096E-04  2.04278429E+00 -2.99007173E-01
 -6.96274296E-05 -2.25519631E+00 -4.63574446E-01 -1.23923519E-04  2.20853268E+00
 -2.19683953E+00  1.96634297E-04  3.60789269E+00  7.78919154E-01  4.22614497E-04
 -2.51870844E-01  2.82383732E+00 -8.39872112E-05
Force Field                                I                0
Int Atom Types                             I   N=           6
           0           0           0           0           0           0
MM charges                                 R   N=           6
  0.00000000E+00  0.00000000E+00  0.00000000E+00  0.00000000E+00  0.00000000E+00
  0.00000000E+00
Integer atomic weights                     I   N=           6
          12          14          16           1           1           1
Real atomic weights                        R   N=           6
  1.20000000E+01  1.40030740E+01  1.59949146E+01  1.00782504E+00  1.00782504E+00
  1.00782504E+00
Atom fragment info                         I   N=           6
           0           0           0           0           0           0
Atom residue num                           I   N=           6
           0           0           0           0           0           0
Nuclear spins                              I   N=           6
           0           2           0           1           1           1
Nuclear ZEff                               R   N=           6
 -3.60000000E+00 -4.55000000E+00 -5.60000000E+00 -1.00000000E+00 -1.00000000E+00
 -1.00000000E+00
Nuclear QMom                               R   N=           6
  0.00000000E+00  2.04400000E+00  0.00000000E+00  0.00000000E+00  0.00000000E+00
  0.00000000E+00
Nuclear GFac                               R   N=           6
  0.00000000E+00  4.03761000E-01  0.00000000E+00  2.79284600E+00  2.79284600E+00
  2.79284600E+00
MicOpt                                     I   N=           6
          -1          -1          -1          -1          -1          -1
Number of contracted shells                I               21
Number of primitive shells                 I               48
Pure/Cartesian d shells                    I                1
Pure/Cartesian f shells                    I                0
Highest angular momentum                   I                2
Largest degree of contraction              I                6
Shell types                                I   N=          21
           0          -1          -1           2           0          -1
          -1           2           0          -1          -1           2
           0           0           1           0           0           1
           0           0           1
Number of primitives per shell             I   N=          21
           6           3           1           1           6           3
           1           1           6           3           1           1
           3           1           1           3           1           1
           3           1           1
Shell to atom map                          I   N=          21
           1           1           1           1           2           2
           2           2           3           3           3           3
           4           4           4           5           5           5
           6           6           6
Primitive exponents                        R   N=          48
  3.04752488E+03  4.57369518E+02  1.03948685E+02  2.92101553E+01  9.28666296E+00
  3.16392696E+00  7.86827235E+00  1.88128854E+00  5.44249258E-01  1.68714478E-01
  8.00000000E-01  4.17351146E+03  6.27457911E+02  1.42902093E+02  4.02343293E+01
  1.28202129E+01  4.39043701E+00  1.16263619E+01  2.71627981E+00  7.72218397E-01
  2.12031498E-01  8.00000000E-01  5.48467166E+03  8.25234946E+02  1.88046958E+02
  5.29645000E+01  1.68975704E+01  5.79963534E+00  1.55396162E+01  3.59993359E+00
  1.01376175E+00  2.70005823E-01  8.00000000E-01  1.87311370E+01  2.82539436E+00
  6.40121692E-01  1.61277759E-01  1.10000000E+00  1.87311370E+01  2.82539436E+00
  6.40121692E-01  1.61277759E-01  1.10000000E+00  1.87311370E+01  2.82539436E+00
  6.40121692E-01  1.61277759E-01  1.10000000E+00
Contraction coefficients                   R   N=          48
  1.83473713E-03  1.40373228E-02  6.88426223E-02  2.32184443E-01  4.67941348E-01
  3.62311985E-01 -1.19332420E-01 -1.60854152E-01  1.14345644E+00  1.00000000E+00
  1.00000000E+00  1.83477216E-03  1.39946270E-02  6.85865518E-02  2.32240873E-01
  4.69069948E-01  3.60455199E-01 -1.14961182E-01 -1.69117479E-01  1.14585195E+00
  1.00000000E+00  1.00000000E+00  1.83107443E-03  1.39501722E-02  6.84450781E-02
  2.32714336E-01  4.70192898E-01  3.58520853E-01 -1.10777550E-01 -1.48026263E-01
  1.13076702E+00  1.00000000E+00  1.00000000E+00  3.34946043E-02  2.34726953E-01
  8.13757326E-01  1.00000000E+00  1.00000000E+00  3.34946043E-02  2.34726953E-01
  8.13757326E-01  1.00000000E+00  1.00000000E+00  3.34946043E-02  2.34726953E-01
  8.13757326E-01  1.00000000E+00  1.00000000E+00
P(S=P) Contraction coefficients            R   N=          48
  0.00000000E+00  0.00000000E+00  0.00000000E+00  0.00000000E+00  0.00000000E+00
  0.00000000E+00  6.89990666E-02  3.16423961E-01  7.44308291E-01  1.00000000E+00
  0.00000000E+00  0.00000000E+00  0.00000000E+00  0.00000000E+00  0.00000000E+00
  0.00000000E+00  0.00000000E+00  6.75797439E-02  3.23907296E-01  7.40895140E-01
  1.00000000E+00  0.00000000E+00  0.00000000E+00  0.00000000E+00  0.00000000E+00
  0.00000000E+00  0.00000000E+00  0.00000000E+00  7.08742682E-02  3.39752839E-01
  7.27158577E-01  1.00000000E+00  0.00000000E+00  0.00000000E+00  0.00000000E+00
  0.00000000E+00  0.00000000E+00  0.00000000E+00  0.00000000E+00  0.00000000E+00
  0.00000000E+00  0.00000000E+00  0.00000000E+00  0.00000000E+00  0.00000000E+00
  0.00000000E+00  0.00000000E+00  0.00000000E+00
Coordinates of each shell                  R   N=          63
 -3.03745677E-01  7.32621472E-01  1.57253096E-04 -3.03745677E-01  7.32621472E-01
  1.57253096E-04 -3.03745677E-01  7.32621472E-01  1.57253096E-04 -3.03745677E-01
  7.32621472E-01  1.57253096E-04  2.04278429E+00 -2.99007173E-01 -6.96274296E-05
  2.04278429E+00 -2.99007173E-01 -6.96274296E-05  2.04278429E+00 -2.99007173E-01
 -6.96274296E-05  2.04278429E+00 -2.99007173E-01 -6.96274296E-05 -2.25519631E+00
 -4.63574446E-01 -1.23923519E-04 -2.25519631E+00 -4.63574446E-01 -1.23923519E-04
 -2.25519631E+00 -4.63574446E-01 -1.23923519E-04 -2.25519631E+00 -4.63574446E-01
 -1.23923519E-04  2.20853268E+00 -2.19683953E+00  1.96634297E-04  2.20853268E+00
 -2.19683953E+00  1.96634297E-04  2.20853268E+00 -2.19683953E+00  1.96634297E-04
  3.60789269E+00  7.78919154E-01  4.22614497E-04  3.60789269E+00  7.78919154E-01
  4.22614497E-04  3.60789269E+00  7.78919154E-01  4.22614497E-04 -2.51870844E-01
  2.82383732E+00 -8.39872112E-05 -2.51870844E-01  2.82383732E+00 -8.39872112E-05
 -2.51870844E-01  2.82383732E+00 -8.39872112E-05
Density Number of contracted shells        I               72
Density Number of primitive shells         I               72
Density Pure/Cartesian d shells            I                0
Density Pure/Cartesian f shells            I                0
Density Highest angular momentum           I                3
Density Largest degree of contraction      I                1
Density Shell types                        I   N=          72
           0           0           0           0          -1          -2
          -1          -2          -1          -2          -1          -2
          -3          -1          -2          -3           0           0
           0           0          -1          -2          -1          -2
          -1          -2          -1          -2          -3          -1
          -2          -3           0           0           0           0
          -1          -2          -1          -2          -1          -2
          -1          -2          -3          -1          -2          -3
           0           0          -1          -2          -1          -2
          -1          -2           0           0          -1          -2
          -1          -2          -1          -2           0           0
          -1          -2          -1          -2          -1          -2
Density Number of primitives per shell     I   N=          72
           1           1           1           1           1           1
           1           1           1           1           1           1
           1           1           1           1           1           1
           1           1           1           1           1           1
           1           1           1           1           1           1
           1           1           1           1           1           1
           1           1           1           1           1           1
           1           1           1           1           1           1
           1           1           1           1           1           1
           1           1           1           1           1           1
           1           1           1           1           1           1
           1           1           1           1           1           1
Density Shell to atom map                  I   N=          72
           1           1           1           1           1           1
           1           1           1           1           1           1
           1           1           1           1           2           2
           2           2           2           2           2           2
           2           2           2           2           2           2
           2           2           3           3           3           3
           3           3           3           3           3           3
           3           3           3           3           3           3
           4           4           4           4           4           4
           4           4           5           5           5           5
           5           5           5           5           6           6
           6           6           6           6           6           6
Density Primitive exponents                R   N=          72
  6.09504976E+03  9.14739036E+02  2.07897370E+02  5.84203106E+01  1.70961976E+01
  1.70961976E+01  6.32785392E+00  6.32785392E+00  3.76257708E+00  3.76257708E+00
  1.31969604E+00  1.31969604E+00  1.31969604E+00  3.37428956E-01  3.37428956E-01
  3.37428956E-01  8.34702292E+03  1.25491582E+03  2.85804186E+02  8.04686586E+01
  2.44174064E+01  2.44174064E+01  8.78087402E+00  8.78087402E+00  5.43255961E+00
  5.43255961E+00  1.57197292E+00  1.57197292E+00  1.57197292E+00  4.24062995E-01
  4.24062995E-01  4.24062995E-01  1.09693433E+04  1.65046989E+03  3.76093916E+02
  1.05929000E+02  3.24087494E+01  3.24087494E+01  1.15992707E+01  1.15992707E+01
  7.19986717E+00  7.19986717E+00  1.80112121E+00  1.80112121E+00  1.80112121E+00
  5.40011645E-01  5.40011645E-01  5.40011645E-01  3.74622739E+01  5.65078873E+00
  2.20000000E+00  2.20000000E+00  1.28024338E+00  1.28024338E+00  3.22555518E-01
  3.22555518E-01  3.74622739E+01  5.65078873E+00  2.20000000E+00  2.20000000E+00
  1.28024338E+00  1.28024338E+00  3.22555518E-01  3.22555518E-01  3.74622739E+01
  5.65078873E+00  2.20000000E+00  2.20000000E+00  1.28024338E+00  1.28024338E+00
  3.22555518E-01  3.22555518E-01
Density Contraction coefficients           R   N=          72
  1.00000000E+00  1.00000000E+00  1.00000000E+00  1.00000000E+00  1.00000000E+00
  1.00000000E+00  1.00000000E+00  1.00000000E+00  1.00000000E+00  1.00000000E+00
  1.00000000E+00  1.00000000E+00  1.00000000E+00  1.00000000E+00  1.00000000E+00
  1.00000000E+00  1.00000000E+00  1.00000000E+00  1.00000000E+00  1.00000000E+00
  1.00000000E+00  1.00000000E+00  1.00000000E+00  1.00000000E+00  1.00000000E+00
  1.00000000E+00  1.00000000E+00  1.00000000E+00  1.00000000E+00  1.00000000E+00
  1.00000000E+00  1.00000000E+00  1.00000000E+00  1.00000000E+00  1.00000000E+00
  1.00000000E+00  1.00000000E+00  1.00000000E+00  1.00000000E+00  1.00000000E+00
  1.00000000E+00  1.00000000E+00  1.00000000E+00  1.00000000E+00  1.00000000E+00
  1.00000000E+00  1.00000000E+00  1.00000000E+00  1.00000000E+00  1.00000000E+00
  1.00000000E+00  1.00000000E+00  1.00000000E+00  1.00000000E+00  1.00000000E+00
  1.00000000E+00  1.00000000E+00  1.00000000E+00  1.00000000E+00  1.00000000E+00
  1.00000000E+00  1.00000000E+00  1.00000000E+00  1.00000000E+00  1.00000000E+00
  1.00000000E+00  1.00000000E+00  1.00000000E+00  1.00000000E+00  1.00000000E+00
  1.00000000E+00  1.00000000E+00
Density P(S=P) Contraction coefficients    R   N=          72
  0.00000000E+00  0.00000000E+00  0.00000000E+00  0.00000000E+00  1.00000000E+00
  0.00000000E+00  1.00000000E+00  0.00000000E+00  1.00000000E+00  0.00000000E+00
  1.00000000E+00  0.00000000E+00  0.00000000E+00  1.00000000E+00  0.00000000E+00
  0.00000000E+00  0.00000000E+00  0.00000000E+00  0.00000000E+00  0.00000000E+00
  1.00000000E+00  0.00000000E+00  1.00000000E+00  0.00000000E+00  1.00000000E+00
  0.00000000E+00  1.00000000E+00  0.00000000E+00  0.00000000E+00  1.00000000E+00
  0.00000000E+00  0.00000000E+00  0.00000000E+00  0.00000000E+00  0.00000000E+00
  0.00000000E+00  1.00000000E+00  0.00000000E+00  1.00000000E+00  0.00000000E+00
  1.00000000E+00  0.00000000E+00  1.00000000E+00  0.00000000E+00  0.00000000E+00
  1.00000000E+00  0.00000000E+00  0.00000000E+00  0.00000000E+00  0.00000000E+00
  1.00000000E+00  0.00000000E+00  1.00000000E+00  0.00000000E+00  1.00000000E+00
  0.00000000E+00  0.00000000E+00  0.00000000E+00  1.00000000E+00  0.00000000E+00
  1.00000000E+00  0.00000000E+00  1.00000000E+00  0.00000000E+00  0.00000000E+00
  0.00000000E+00  1.00000000E+00  0.00000000E+00  1.00000000E+00  0.00000000E+00
  1.00000000E+00  0.00000000E+00
Density Coordinates of each shell          R   N=         216
 -3.03745677E-01  7.32621472E-01  1.57253096E-04 -3.03745677E-01  7.32621472E-01
  1.57253096E-04 -3.03745677E-01  7.32621472E-01  1.57253096E-04 -3.03745677E-01
  7.32621472E-01  1.57253096E-04 -3.03745677E-01  7.32621472E-01  1.57253096E-04
 -3.03745677E-01  7.32621472E-01  1.57253096E-04 -3.03745677E-01  7.32621472E-01
  1.57253096E-04 -3.03745677E-01  7.32621472E-01  1.57253096E-04 -3.03745677E-01
  7.32621472E-01  1.57253096E-04 -3.03745677E-01  7.32621472E-01  1.57253096E-04
 -3.03745677E-01  7.32621472E-01  1.57253096E-04 -3.03745677E-01  7.32621472E-01
  1.57253096E-04 -3.03745677E-01  7.32621472E-01  1.57253096E-04 -3.03745677E-01
  7.32621472E-01  1.57253096E-04 -3.03745677E-01  7.32621472E-01  1.57253096E-04
 -3.03745677E-01  7.32621472E-01  1.57253096E-04  2.04278429E+00 -2.99007173E-01
 -6.96274296E-05  2.04278429E+00 -2.99007173E-01 -6.96274296E-05  2.04278429E+00
 -2.99007173E-01 -6.96274296E-05  2.04278429E+00 -2.99007173E-01 -6.96274296E-05
  2.04278429E+00 -2.99007173E-01 -6.96274296E-05  2.04278429E+00 -2.99007173E-01
 -6.96274296E-05  2.04278429E+00 -2.99007173E-01 -6.96274296E-05  2.04278429E+00
 -2.99007173E-01 -6.96274296E-05  2.04278429E+00 -2.99007173E-01 -6.96274296E-05
  2.04278429E+00 -2.99007173E-01 -6.96274296E-05  2.04278429E+00 -2.99007173E-01
 -6.96274296E-05  2.04278429E+00 -2.99007173E-01 -6.96274296E-05  2.04278429E+00
 -2.99007173E-01 -6.96274296E-05  2.04278429E+00 -2.99007173E-01 -6.96274296E-05
  2.04278429E+00 -2.99007173E-01 -6.96274296E-05  2.04278429E+00 -2.99007173E-01
 -6.96274296E-05 -2.25519631E+00 -4.63574446E-01 -1.23923519E-04 -2.25519631E+00
 -4.63574446E-01 -1.23923519E-04 -2.25519631E+00 -4.63574446E-01 -1.23923519E-04
 -2.25519631E+00 -4.63574446E-01 -1.23923519E-04 -2.25519631E+00 -4.63574446E-01
 -1.23923519E-04 -2.25519631E+00 -4.63574446E-01 -1.23923519E-04 -2.25519631E+00
 -4.63574446E-01 -1.23923519E-04 -2.25519631E+00 -4.63574446E-01 -1.23923519E-04
 -2.25519631E+00 -4.63574446E-01 -1.23923519E-04 -2.25519631E+00 -4.63574446E-01
 -1.23923519E-04 -2.25519631E+00 -4.63574446E-01 -1.23923519E-04 -2.25519631E+00
 -4.63574446E-01 -1.23923519E-04 -2.25519631E+00 -4.63574446E-01 -1.23923519E-04
 -2.25519631E+00 -4.63574446E-01 -1.23923519E-04 -2.25519631E+00 -4.63574446E-01
 -1.23923519E-04 -2.25519631E+00 -4.63574446E-01 -1.23923519E-04  2.20853268E+00
 -2.19683953E+00  1.96634297E-04  2.20853268E+00 -2.19683953E+00  1.96634297E-04
  2.20853268E+00 -2.19683953E+00  1.96634297E-04  2.20853268E+00 -2.19683953E+00
  1.96634297E-04  2.20853268E+00 -2.19683953E+00  1.96634297E-04  2.20853268E+00
 -2.19683953E+00  1.96634297E-04  2.20853268E+00 -2.19683953E+00  1.96634297E-04
  2.20853268E+00 -2.19683953E+00  1.96634297E-04  3.60789269E+00  7.78919154E-01
  4.22614497E-04  3.60789269E+00  7.78919154E-01  4.22614497E-04  3.60789269E+00
  7.78919154E-01  4.22614497E-04  3.60789269E+00  7.78919154E-01  4.22614497E-04
  3.60789269E+00  7.78919154E-01  4.22614497E-04  3.60789269E+00  7.78919154E-01
  4.22614497E-04  3.60789269E+00  7.78919154E-01  4.22614497E-04  3.60789269E+00
  7.78919154E-01  4.22614497E-04 -2.51870844E-01  2.82383732E+00 -8.39872112E-05
 -2.51870844E-01  2.82383732E+00 -8.39872112E-05 -2.51870844E-01  2.82383732E+00
 -8.39872112E-05 -2.51870844E-01  2.82383732E+00 -8.39872112E-05 -2.51870844E-01
  2.82383732E+00 -8.39872112E-05 -2.51870844E-01  2.82383732E+00 -8.39872112E-05
 -2.51870844E-01  2.82383732E+00 -8.39872112E-05 -2.51870844E-01  2.82383732E+00
 -8.39872112E-05
Constraint Structure                       R   N=          18
 -3.03745677E-01  7.32621472E-01  1.57253096E-04  2.04278429E+00 -2.99007173E-01
 -6.96274296E-05 -2.25519631E+00 -4.63574446E-01 -1.23923519E-04  2.20853268E+00
 -2.19683953E+00  1.96634297E-04  3.60789269E+00  7.78919154E-01  4.22614497E-04
 -2.51870844E-01  2.82383732E+00 -8.39872112E-05
Num ILSW                                   I              100
ILSW                                       I   N=         100
           0           1           0           0           2           0
           0           0           0           0       20419          -1
           0           0           0           0           0           0
           0           0           1           0           1           0
           1           0           0           0           0           0
           0           0      100000           0          -1           0
           0           0           0           0           0           0
           0           0           0           1           0           0
           0           0           1           0           0           0
           0           0           4          40           0           0
           0           0          40           0           0           0
           0           0           0           0           0           0
           0           0           0           0           0           0
           0           0           0           0           0           0
           0           0           0           0           0           0
           0           0           0           0           0           0
           0           0           0           0
Num RLSW                                   I               40
RLSW                                       R   N=          40
  1.00000000E+00  1.00000000E+00  1.00000000E+00  8.10000000E-01  1.00000000E+00
  0.00000000E+00  3.30000000E-01  1.90000000E-01  0.00000000E+00  4.60000000E-01
  0.00000000E+00  3.30000000E-01  1.90000000E-01  0.00000000E+00  4.60000000E-01
  0.00000000E+00  0.00000000E+00  1.00000000E+00  0.00000000E+00  0.00000000E+00
  0.00000000E+00  0.00000000E+00  1.00000000E+00  0.00000000E+00  0.00000000E+00
  0.00000000E+00  0.00000000E+00  1.00000000E+00  0.00000000E+00  0.00000000E+00
  0.00000000E+00  0.00000000E+00  0.00000000E+00  0.00000000E+00  0.00000000E+00
  0.00000000E+00  0.00000000E+00  0.00000000E+00  1.00000000E+00  1.00000000E+00
MxBond                                     I                3
NBond                                      I   N=           6
           3           3           1           1           1           1
IBond                                      I   N=          18
           2           3           6           1           4           5
           1           0           0           2           0           0
           2           0           0           1           0           0
RBond                                      R   N=          18
  1.41000000E+00  2.00000000E+00  1.00000000E+00  1.41000000E+00  1.00000000E+00
  1.00000000E+00  2.00000000E+00  0.00000000E+00  0.00000000E+00  1.00000000E+00
  0.00000000E+00  0.00000000E+00  1.00000000E+00  0.00000000E+00  0.00000000E+00
  1.00000000E+00  0.00000000E+00  0.00000000E+00
Virial Ratio                               R      2.008688772323969E+00
SCF Energy                                 R     -1.698232498120920E+02
Total Energy                               R     -1.698232498120920E+02
RMS Force                                  R      5.722081029064877E-05
RMS Density                                R      1.977085149253683E-09
External E-field                           R   N=          35
  0.00000000E+00  0.00000000E+00  0.00000000E+00  0.00000000E+00  0.00000000E+00
  0.00000000E+00  0.00000000E+00  0.00000000E+00  0.00000000E+00  0.00000000E+00
  0.00000000E+00  0.00000000E+00  0.00000000E+00  0.00000000E+00  0.00000000E+00
  0.00000000E+00  0.00000000E+00  0.00000000E+00  0.00000000E+00  0.00000000E+00
  0.00000000E+00  0.00000000E+00  0.00000000E+00  0.00000000E+00  0.00000000E+00
  0.00000000E+00  0.00000000E+00  0.00000000E+00  0.00000000E+00  0.00000000E+00
  0.00000000E+00  0.00000000E+00  0.00000000E+00  0.00000000E+00  0.00000000E+00
IOpCl                                      I                0
IROHF                                      I                0
Alpha Orbital Energies                     R   N=          60
 -1.91876395E+01 -1.44354369E+01 -1.03638358E+01 -1.11401325E+00 -9.88554016E-01
 -6.98820574E-01 -6.26853367E-01 -5.46749593E-01 -4.76971748E-01 -4.72435511E-01
 -3.33762897E-01 -3.18131476E-01  8.77494222E-02  1.25559416E-01  1.62023518E-01
  2.18660084E-01  3.20976896E-01  4.05528209E-01  5.92075483E-01  6.02353833E-01
  7.08668086E-01  7.40759733E-01  7.61542766E-01  7.77057842E-01  8.90062730E-01
  9.05573379E-01  9.12680223E-01  9.31200229E-01  1.07148581E+00  1.14102480E+00
  1.27511768E+00  1.34802361E+00  1.39837399E+00  1.45294415E+00  1.56875716E+00
  1.57867716E+00  1.83112694E+00  1.89602631E+00  1.91622073E+00  2.05033887E+00
  2.08384524E+00  2.14773438E+00  2.19328602E+00  2.20772754E+00  2.34490793E+00
  2.43842698E+00  2.56848855E+00  2.59257896E+00  2.69413078E+00  2.82657881E+00
  2.83743859E+00  2.93605819E+00  3.07098836E+00  3.09250520E+00  3.32120767E+00
  3.52845457E+00  3.72562559E+00  3.93855431E+00  4.03093525E+00  4.45557892E+00
Alpha MO coefficients                      R   N=        3600
  1.54422456E-05  5.52004541E-04  5.88189235E-05 -1.39637341E-05  1.33080926E-08
 -2.76098597E-03  2.04167624E-03  1.86892017E-03  2.33855633E-07 -6.83861914E-04
 -2.39032902E-04 -6.10394522E-06 -4.71442579E-04 -1.06292119E-07 -8.03440128E-08
 -6.96795912E-06  1.79741979E-07 -1.32892612E-05  4.27095036E-05  4.80874792E-09
  1.96272016E-04 -2.71971710E-04 -6.96537120E-04 -2.89363782E-08 -1.49163511E-04
  1.02933621E-04 -1.84932034E-05 -1.41664992E-04 -4.37769176E-08 -2.67360237E-08
  9.92816268E-01  2.57850796E-02  1.08938841E-03  6.33134289E-04  1.73697293E-07
  1.29408725E-02  1.20707911E-03  6.38857224E-04  2.04488898E-07 -7.54057845E-03
 -7.79842145E-03 -7.94340225E-03  2.66920464E-04  7.62282024E-08  3.85106719E-08
 -1.72938701E-04 -2.71079719E-04 -3.66060082E-05 -8.11093952E-05  3.56917369E-08
  1.89947455E-04  9.34975704E-06 -8.06007482E-06 -6.59442873E-05 -4.53399803E-08
 -3.95984499E-05 -5.82551396E-04  1.41249645E-05  3.19799785E-05 -1.13348997E-08
  3.81494135E-05  2.30454757E-04  3.10037732E-04 -1.47496145E-04 -5.36131088E-08
 -3.85865152E-04 -9.78571663E-05 -1.81639445E-06  9.10882856E-08  1.12698377E-04
  9.44949075E-05 -1.46341308E-05 -2.29705541E-05 -2.58669593E-08  1.04359464E-08
  9.92628513E-01  3.48333501E-02  1.26010806E-04 -3.59090677E-06  5.76060310E-07
  4.21259205E-03  6.45805833E-05 -4.23246041E-05 -1.68330937E-07 -8.35128266E-03
 -8.28273635E-03 -8.35689855E-03  5.55952311E-05  3.41936293E-08 -1.20879481E-09
  3.57823862E-06  2.04991997E-05 -3.04788917E-05 -2.84244322E-06 -4.39433141E-09
 -3.30127794E-05 -9.50999442E-05  3.62628962E-05 -1.73330947E-08 -9.65929430E-05
  2.78050238E-05  4.62678436E-06  6.22611822E-06 -6.30527406E-09 -5.13005414E-09
  3.04032005E-04 -5.36740208E-04  5.74055996E-06 -3.25632576E-05 -7.17288517E-09
  2.88500946E-04 -5.34034740E-04  4.85004355E-05  3.10973305E-05  1.41704430E-09
 -5.21486877E-05  1.71275768E-05 -5.16486262E-05  6.45310913E-05 -7.42110265E-09
  9.92765047E-01  4.83719254E-02 -4.99936089E-05 -5.57833489E-04 -1.84386097E-07
 -6.52277167E-03 -2.05471331E-03 -2.41565076E-03  2.38999688E-07 -8.47360250E-03
 -9.07289457E-03 -9.87154494E-03  3.09084889E-04  5.56808409E-08  7.55370967E-08
 -2.10109746E-04 -7.57822917E-05  2.08591271E-04 -1.63346078E-04 -6.19352883E-08
  1.36775670E-03  5.03649891E-04  1.00041752E-03 -1.02421724E-07 -6.82810026E-04
 -4.89619388E-04 -8.57521520E-06  2.02148817E-04  9.83873073E-08  2.62778835E-09
 -1.51331016E-04  4.42317313E-04  4.18811373E-05  1.04709319E-05  3.29969164E-08
 -3.13082072E-03 -1.78646390E-03 -8.94064243E-04 -4.88004896E-07 -1.29091698E-04
  1.51240165E-04  3.94784841E-04 -2.40052071E-04 -1.45658715E-07 -7.61504243E-08
  2.97046059E-04  4.43070871E-04 -1.17630018E-04  2.32947174E-04 -4.04559042E-08
 -1.07078324E-04 -1.48626631E-04 -2.10130030E-04 -9.77529404E-06  3.25701496E-09
 -3.06181220E-04  2.78827548E-03  6.68436413E-05  1.66047566E-04 -3.43761375E-08
 -1.32492868E-01  2.59869458E-01 -1.09389762E-01 -1.08091873E-01 -2.43464733E-05
  7.52550809E-02  8.90482747E-03  2.79062967E-02  3.41083876E-06  1.14068255E-02
 -1.10704986E-02 -2.24812180E-02  1.76167225E-02  4.31417672E-06  3.21815092E-06
 -6.30321442E-02  1.27985268E-01 -4.67476145E-02  9.08290330E-03  1.11699532E-05
  1.19684858E-01 -2.59360420E-02 -2.07055661E-03  4.37272104E-06  7.71928776E-03
 -2.89810191E-03 -6.30541066E-03 -3.08802462E-03 -1.20649209E-06  1.20266026E-07
 -1.78315406E-01  3.83561360E-01  1.35449425E-01  7.62951727E-02  1.82330338E-05
  3.60659013E-01  4.83231955E-02  2.14917543E-02  6.51617356E-06  5.77821264E-03
 -6.17878552E-03 -7.86421521E-03  1.00979535E-02  2.62752319E-06  1.19530072E-06
  3.24867230E-02  2.84575908E-03 -1.42839272E-03  4.95491976E-03 -4.70417779E-07
  2.83612671E-02  2.53178503E-03 -3.11986394E-03 -1.90858980E-03 -7.68385029E-07
  3.47983589E-02 -1.05160906E-02 -1.49140247E-03 -7.09010511E-03  2.70332630E-07
 -3.28239813E-02  6.64632951E-02  2.15010724E-01  3.64132054E-03  4.32713535E-06
  5.21761963E-03  2.33119431E-03  1.31129178E-02  1.97445213E-06  6.84195822E-03
 -2.37278714E-03 -3.10830300E-03 -2.27060992E-02 -4.22080918E-06 -9.79168825E-07
 -1.89567438E-01  3.90154759E-01 -1.73671589E-02  2.14013028E-02  4.36677676E-05
  4.00935029E-01 -1.12102816E-02  1.22505149E-02  2.04893621E-05 -3.57401287E-03
 -4.12490683E-03 -1.71454770E-02 -2.67863748E-03  1.46985240E-07  1.35856956E-06
  8.59821020E-02 -1.89930708E-01 -3.48937461E-02 -3.91634489E-02 -8.91861173E-06
 -1.72704836E-01 -1.16874368E-03 -1.07322516E-02 -2.15274861E-06  2.39882536E-03
 -1.37800635E-04  2.05209284E-03 -2.77223002E-03 -6.27080504E-07 -8.97821432E-07
  1.16913353E-01  1.31619323E-02 -1.23909065E-03  1.59321231E-02 -1.38482191E-06
  1.26705056E-01  1.70164907E-02 -1.43262292E-02 -9.31894136E-03 -3.64917374E-06
  1.97173707E-02  2.67897274E-03  2.13055240E-03 -1.90093310E-03  2.33850693E-07
 -1.32626659E-01  2.86878606E-01  1.59715875E-01  1.37826577E-01 -1.98069874E-05
  2.08050884E-01  5.30375664E-02  6.14674323E-02  3.99344047E-06 -9.57987828E-03
 -5.28641891E-03 -1.31635887E-02 -7.08362122E-03 -3.65966135E-06 -1.72942555E-06
  4.67174633E-02 -9.98385169E-02 -2.47633087E-01  2.27430655E-01 -2.66576230E-05
 -1.37729940E-01 -1.05360051E-01  9.17229796E-02 -1.59043910E-05  7.57611467E-03
 -2.88246280E-03  3.63532069E-03 -1.12108043E-02 -6.37965590E-06  4.77853629E-06
  6.16530186E-02 -1.42789555E-01  3.72372809E-02  4.77513320E-02 -6.17136568E-06
 -1.50078804E-01  3.36009788E-02  3.12314444E-02 -1.12388167E-06  5.16095810E-03
  2.97755795E-03 -1.47776022E-03  6.55302643E-03 -1.91416037E-07  1.75485906E-08
 -1.68141035E-01 -7.15341528E-02 -3.80803112E-03 -1.23197448E-02  1.94990347E-06
 -8.16469090E-02 -3.26057490E-02  8.22062451E-04  9.33016784E-03  1.45468053E-06
  1.65302821E-01  7.61985291E-02  1.58749845E-03 -1.15906515E-02  1.34742670E-06