 Entering Gaussian System, Link 0=g09
 Input=td1.com
 Output=td1.log
 Initial command:
 /home/diegoa/progs/g09/l1.exe /home/diegoa/g09scratch/Gau-7637.inp -scrdir=/home/diegoa/g09scratch/
 Default is to use a total of   4 processors:
                                4 via shared-memory
                                1 via Linda
 Entering Link 1 = /home/diegoa/progs/g09/l1.exe PID=      7641.
  
 Copyright (c) 1988,1990,1992,1993,1995,1998,2003,2009, Gaussian, Inc.
                  All Rights Reserved.
  
 This is part of the Gaussian(R) 09 program.  It is based on
 the Gaussian(R) 03 system (copyright 2003, Gaussian, Inc.),
 the Gaussian(R) 98 system (copyright 1998, Gaussian, Inc.),
 the Gaussian(R) 94 system (copyright 1995, Gaussian, Inc.),
 the Gaussian 92(TM) system (copyright 1992, Gaussian, Inc.),
 the Gaussian 90(TM) system (copyright 1990, Gaussian, Inc.),
 the Gaussian 88(TM) system (copyright 1988, Gaussian, Inc.),
 the Gaussian 86(TM) system (copyright 1986, Carnegie Mellon
 University), and the Gaussian 82(TM) system (copyright 1983,
 Carnegie Mellon University). Gaussian is a federally registered
 trademark of Gaussian, Inc.
  
 This software contains proprietary and confidential information,
 including trade secrets, belonging to Gaussian, Inc.
  
 This software is provided under written license and may be
 used, copied, transmitted, or stored only in accord with that
 written license.
  
 The following legend is applicable only to US Government
 contracts under FAR:
  
                    RESTRICTED RIGHTS LEGEND
  
 Use, reproduction and disclosure by the US Government is
 subject to restrictions as set forth in subparagraphs (a)
 and (c) of the Commercial Computer Software - Restricted
 Rights clause in FAR 52.227-19.
  
 Gaussian, Inc.
 340 Quinnipiac St., Bldg. 40, Wallingford CT 06492
  
  
 ---------------------------------------------------------------
 Warning -- This program may not be used in any manner that
 competes with the business of Gaussian, Inc. or will provide
 assistance to any competitor of Gaussian, Inc.  The licensee
 of this program is prohibited from giving any competitor of
 Gaussian, Inc. access to this program.  By using this program,
 the user acknowledges that Gaussian, Inc. is engaged in the
 business of creating and licensing software in the field of
 computational chemistry and represents and warrants to the
 licensee that it is not a competitor of Gaussian, Inc. and that
 it will not use this program in any manner prohibited above.
 ---------------------------------------------------------------
  

 Cite this work as:
 Gaussian 09, Revision A.01,
 M. J. Frisch, G. W. Trucks, H. B. Schlegel, G. E. Scuseria, 
 M. A. Robb, J. R. Cheeseman, G. Scalmani, V. Barone, B. Mennucci, 
 G. A. Petersson, H. Nakatsuji, M. Caricato, X. Li, H. P. Hratchian, 
 A. F. Izmaylov, J. Bloino, G. Zheng, J. L. Sonnenberg, M. Hada, 
 M. Ehara, K. Toyota, R. Fukuda, J. Hasegawa, M. Ishida, T. Nakajima, 
 Y. Honda, O. Kitao, H. Nakai, T. Vreven, J. A. Montgomery, Jr., 
 J. E. Peralta, F. Ogliaro, M. Bearpark, J. J. Heyd, E. Brothers, 
 K. N. Kudin, V. N. Staroverov, R. Kobayashi, J. Normand, 
 K. Raghavachari, A. Rendell, J. C. Burant, S. S. Iyengar, J. Tomasi, 
 M. Cossi, N. Rega, J. M. Millam, M. Klene, J. E. Knox, J. B. Cross, 
 V. Bakken, C. Adamo, J. Jaramillo, R. Gomperts, R. E. Stratmann, 
 O. Yazyev, A. J. Austin, R. Cammi, C. Pomelli, J. W. Ochterski, 
 R. L. Martin, K. Morokuma, V. G. Zakrzewski, G. A. Voth, 
 P. Salvador, J. J. Dannenberg, S. Dapprich, A. D. Daniels, 
 O. Farkas, J. B. Foresman, J. V. Ortiz, J. Cioslowski, 
 and D. J. Fox, Gaussian, Inc., Wallingford CT, 2009.
 
 ******************************************
 Gaussian 09:  EM64L-G09RevA.01  8-May-2009
                30-Oct-2019 
 ******************************************
 %chk=td1.chk
 %NProcShared=4
 Will use up to    4 processors via shared memory.
 Default route:  MP2=Direct MaxDisk=1000GB DenFit
 ------------------------------------------------------
 # cam-b3lyp/6-31G** force nosymm td(root=1,nstates=10)
 ------------------------------------------------------
 1/10=7,30=1,38=1/1,3;
 2/12=2,15=1,17=6,18=5,40=1/2;
 3/5=1,6=6,7=101,11=2,16=1,25=1,30=1,71=1,74=-40,82=47/1,2,8,3;
 4//1;
 5/5=2,38=5/2;
 8/6=1,10=2,107=1,108=10/1;
 9/8=1,15=2,41=10,42=1/14;
 10/5=4,31=1/2;
 6/7=2,8=2,9=2,10=2,18=1/1;
 7/12=6,13=5,14=1,29=1,30=1/1,2,3,16;
 1/10=7,30=1/3;
 99//99;
 -----
 Title
 -----
 Symbolic Z-matrix:
 Charge =  0 Multiplicity = 1
 6                    -0.16039   0.39053   0. 
 7                     1.0908   -0.16116  -0.00005 
 8                    -1.20831  -0.24554  -0.00001 
 1                     1.18292  -1.17376   0.00015 
 1                     1.92711   0.41384   0.00027 
 1                    -0.11676   1.50924   0.00001 
 

 GradGradGradGradGradGradGradGradGradGradGradGradGradGradGradGradGradGrad
 Berny optimization.
 Initialization pass.
 Trust Radius=3.00D-01 FncErr=1.00D-07 GrdErr=1.00D-07
 Number of steps in this run=   2 maximum allowed number of steps=   2.
 GradGradGradGradGradGradGradGradGradGradGradGradGradGradGradGradGradGrad

                          Input orientation:                          
 ---------------------------------------------------------------------
 Center     Atomic      Atomic             Coordinates (Angstroms)
 Number     Number       Type             X           Y           Z
 ---------------------------------------------------------------------
      1          6           0       -0.160394    0.390526    0.000000
      2          7           0        1.090797   -0.161160   -0.000052
      3          8           0       -1.208310   -0.245544   -0.000007
      4          1           0        1.182918   -1.173762    0.000146
      5          1           0        1.927106    0.413835    0.000266
      6          1           0       -0.116755    1.509243    0.000014
 ---------------------------------------------------------------------
                    Distance matrix (angstroms):
                    1          2          3          4          5
     1  C    0.000000
     2  N    1.367420   0.000000
     3  O    1.225852   2.300655   0.000000
     4  H    2.061913   1.016784   2.565065   0.000000
     5  H    2.087630   1.014905   3.204000   1.753362   0.000000
     6  H    1.119568   2.061172   2.066584   2.981219   2.318898
                    6
     6  H    0.000000
 Symmetry turned off by external request.
 Stoichiometry    CH3NO
 Framework group  C1[X(CH3NO)]
 Deg. of freedom    12
 Full point group                 C1      NOp   1
 Rotational constants (GHZ):     72.3054691     11.1542536      9.6635062
 Standard basis: 6-31G(d,p) (6D, 7F)
 Integral buffers will be    131072 words long.
 Raffenetti 2 integral format.
 Two-electron integral symmetry is turned off.
    60 basis functions,   105 primitive gaussians,    60 cartesian basis functions
    12 alpha electrons       12 beta electrons
       nuclear repulsion energy        70.5694517693 Hartrees.
 NAtoms=    6 NActive=    6 NUniq=    6 SFac= 7.50D-01 NAtFMM=   80 NAOKFM=F Big=F
 Standard density basis: Auto (5D, 7F)
   276 Density fitting functions
 One-electron integrals computed using PRISM.
 NBasis=    60 RedAO= T  NBF=    60
 NBsUse=    60 1.00D-06 NBFU=    60
 Harris functional with IExCor=20419 diagonalized for initial guess.
 ExpMin= 1.61D-01 ExpMax= 5.48D+03 ExpMxC= 8.25D+02 IAcc=1 IRadAn=         1 AccDes= 0.00D+00
 HarFok:  IExCor=20419 AccDes= 0.00D+00 IRadAn=         1 IDoV= 1
 ScaDFX=  1.000000  1.000000  1.000000  1.000000
 FoFCou: FMM=F IPFlag=           0 FMFlag=      100000 FMFlg1=           0
         NFxFlg=           0 DoJE=T BraDBF=F KetDBF=T FulRan=T
         Omega=  0.000000  0.000000  1.000000  0.000000  0.000000 ICntrl=     500 IOpCl=  0
         NMat0=    1 NMatS0=    1 NMatT0=    0 NMatD0=    1 NMtDS0=    0 NMtDT0=    0
         I1Cent=           4 NGrid=           0.
 Symmetry not used in FoFCou.
 Requested convergence on RMS density matrix=1.00D-08 within 128 cycles.
 Requested convergence on MAX density matrix=1.00D-06.
 Requested convergence on             energy=1.00D-06.
 No special actions if energy rises.
 Integral accuracy reduced to 1.0D-05 until final iterations.
 FoFJK:  IHMeth= 1 ICntrl=     0 DoSepK=T KAlg= 1 I1Cent= 0 FoldK=F
 FoFJK:  IHMeth= 1 ICntrl=     0 DoSepK=T KAlg= 1 I1Cent= 0 FoldK=F
 FoFJK:  IHMeth= 1 ICntrl=     0 DoSepK=T KAlg= 1 I1Cent= 0 FoldK=F
 FoFJK:  IHMeth= 1 ICntrl=     0 DoSepK=T KAlg= 1 I1Cent= 0 FoldK=F
 FoFJK:  IHMeth= 1 ICntrl=     0 DoSepK=T KAlg= 1 I1Cent= 0 FoldK=F
 FoFJK:  IHMeth= 1 ICntrl=     0 DoSepK=T KAlg= 1 I1Cent= 0 FoldK=F
 FoFJK:  IHMeth= 1 ICntrl=     0 DoSepK=T KAlg= 1 I1Cent= 0 FoldK=F
 FoFJK:  IHMeth= 1 ICntrl=     0 DoSepK=T KAlg= 1 I1Cent= 0 FoldK=F
 Initial convergence to 1.0D-05 achieved.  Increase integral accuracy.
 FoFJK:  IHMeth= 1 ICntrl=     0 DoSepK=T KAlg= 1 I1Cent= 0 FoldK=F
 FoFJK:  IHMeth= 1 ICntrl=     0 DoSepK=T KAlg= 1 I1Cent= 0 FoldK=F
 FoFJK:  IHMeth= 1 ICntrl=     0 DoSepK=T KAlg= 1 I1Cent= 0 FoldK=F
 FoFJK:  IHMeth= 1 ICntrl=     0 DoSepK=T KAlg= 1 I1Cent= 0 FoldK=F
 FoFJK:  IHMeth= 1 ICntrl=     0 DoSepK=T KAlg= 1 I1Cent= 0 FoldK=F
 FoFJK:  IHMeth= 1 ICntrl=     0 DoSepK=T KAlg= 1 I1Cent= 0 FoldK=F
 SCF Done:  E(RCAM-B3LYP) =  -169.822492185     A.U. after   14 cycles
             Convg  =    0.4944D-08             -V/T =  2.0095
 ExpMin= 1.61D-01 ExpMax= 5.48D+03 ExpMxC= 8.25D+02 IAcc=1 IRadAn=         1 AccDes= 0.00D+00
 HarFok:  IExCor=  205 AccDes= 0.00D+00 IRadAn=         1 IDoV=-2
 ScaDFX=  1.000000  1.000000  1.000000  1.000000
 Range of M.O.s used for correlation:     4    60
 NBasis=    60 NAE=    12 NBE=    12 NFC=     3 NFV=     0
 NROrb=     57 NOA=     9 NOB=     9 NVA=    48 NVB=    48
    40 initial guesses have been made.
 Convergence on wavefunction:    0.000001000000000
 Iteration     1 Dimension    40 NMult    40
 CISAX will form    40 AO SS matrices at one time.
 FoFJK:  IHMeth= 1 ICntrl=     0 DoSepK=T KAlg= 1 I1Cent= 0 FoldK=F
 FoFJK:  IHMeth= 1 ICntrl=     0 DoSepK=T KAlg= 1 I1Cent= 0 FoldK=F
 New state      3 was old state      4
 New state      4 was old state      6
 New state      6 was old state      3
 New state      7 was old state     10
 New state      9 was old state      7
 No map to state     10
 Iteration     2 Dimension    60 NMult    60
 FoFJK:  IHMeth= 1 ICntrl=     0 DoSepK=T KAlg= 1 I1Cent= 0 FoldK=F
 FoFJK:  IHMeth= 1 ICntrl=     0 DoSepK=T KAlg= 1 I1Cent= 0 FoldK=F
 Iteration     3 Dimension    80 NMult    80
 FoFJK:  IHMeth= 1 ICntrl=     0 DoSepK=T KAlg= 1 I1Cent= 0 FoldK=F
 FoFJK:  IHMeth= 1 ICntrl=     0 DoSepK=T KAlg= 1 I1Cent= 0 FoldK=F
 No map to state     10
 Iteration     4 Dimension   100 NMult   100
 FoFJK:  IHMeth= 1 ICntrl=     0 DoSepK=T KAlg= 1 I1Cent= 0 FoldK=F
 FoFJK:  IHMeth= 1 ICntrl=     0 DoSepK=T KAlg= 1 I1Cent= 0 FoldK=F
 Iteration     5 Dimension   120 NMult   120
 FoFJK:  IHMeth= 1 ICntrl=     0 DoSepK=T KAlg= 1 I1Cent= 0 FoldK=F
 FoFJK:  IHMeth= 1 ICntrl=     0 DoSepK=T KAlg= 1 I1Cent= 0 FoldK=F
 Iteration     6 Dimension   138 NMult   138
 FoFJK:  IHMeth= 1 ICntrl=     0 DoSepK=T KAlg= 1 I1Cent= 0 FoldK=F
 FoFJK:  IHMeth= 1 ICntrl=     0 DoSepK=T KAlg= 1 I1Cent= 0 FoldK=F
 Iteration     7 Dimension   148 NMult   148
 FoFJK:  IHMeth= 1 ICntrl=     0 DoSepK=T KAlg= 1 I1Cent= 0 FoldK=F
 FoFJK:  IHMeth= 1 ICntrl=     0 DoSepK=T KAlg= 1 I1Cent= 0 FoldK=F
 Iteration     8 Dimension   152 NMult   152
 FoFJK:  IHMeth= 1 ICntrl=     0 DoSepK=T KAlg= 1 I1Cent= 0 FoldK=F
 FoFJK:  IHMeth= 1 ICntrl=     0 DoSepK=T KAlg= 1 I1Cent= 0 FoldK=F
 Iteration     9 Dimension   154 NMult   154
 FoFJK:  IHMeth= 1 ICntrl=     0 DoSepK=T KAlg= 1 I1Cent= 0 FoldK=F
 FoFJK:  IHMeth= 1 ICntrl=     0 DoSepK=T KAlg= 1 I1Cent= 0 FoldK=F
 Iteration    10 Dimension   156 NMult   156
 FoFJK:  IHMeth= 1 ICntrl=     0 DoSepK=T KAlg= 1 I1Cent= 0 FoldK=F
 FoFJK:  IHMeth= 1 ICntrl=     0 DoSepK=T KAlg= 1 I1Cent= 0 FoldK=F
 ***********************************************************************
 Excited states from <AA,BB:AA,BB> singles matrix:
 ***********************************************************************
 
 Ground to excited state transition electric dipole moments (Au):
       state          X           Y           Z        Dip. S.      Osc.
         1         0.0000      0.0000      0.0859      0.0074      0.0010
         2         0.7071     -0.0686      0.0000      0.5047      0.0978
         3        -0.0004      0.0000      0.1158      0.0134      0.0027
         4         0.0000     -0.0003     -0.0341      0.0012      0.0003
         5        -1.0137      0.2994     -0.0001      1.1172      0.2535
         6        -0.4129     -0.6470      0.0000      0.5890      0.1381
         7         0.0002      0.0001     -0.1057      0.0112      0.0028
         8         0.0001     -0.0003      0.0133      0.0002      0.0000
         9         0.0959     -0.1125      0.0000      0.0219      0.0058
        10        -0.0058     -0.6337      0.0000      0.4016      0.1131
 Ground to excited state transition velocity dipole moments (Au):
       state          X           Y           Z        Dip. S.      Osc.
         1         0.0000      0.0000     -0.0195      0.0004      0.0012
         2        -0.2008      0.0159      0.0000      0.0406      0.0930
         3         0.0001      0.0000     -0.0746      0.0056      0.0121
         4         0.0000      0.0001      0.0215      0.0005      0.0009
         5         0.3191     -0.0964      0.0000      0.1111      0.2176
         6         0.1567      0.2164      0.0000      0.0714      0.1353
         7        -0.0001      0.0000      0.0614      0.0038      0.0068
         8        -0.0001      0.0001     -0.0021      0.0000      0.0000
         9        -0.0391      0.0414      0.0000      0.0032      0.0054
        10        -0.0031      0.2438      0.0000      0.0595      0.0939
 Ground to excited state transition magnetic dipole moments (Au):
       state          X           Y           Z
         1        -0.8992     -0.4367      0.0000
         2         0.0001      0.0001      0.2995
         3        -0.0067      0.3295     -0.0002
         4        -0.2138     -0.0152      0.0000
         5         0.0000      0.0001     -0.2270
         6         0.0001      0.0001      0.1854
         7        -0.9242      1.2186      0.0000
         8         0.0980     -0.0768      0.0002
         9        -0.0002      0.0002      0.0219
        10        -0.0002     -0.0002      0.0241
 <0|del|b> * <b|rxdel|0> + <0|del|b> * <b|delr+rdel|0>
 Rotatory Strengths (R) in cgs (10**-40 erg-esu-cm/Gauss)
       state          XX          YY          ZZ    R(velocity)
         1        -0.0002      0.0101      0.0107      0.0068
 Total R(velocity) tensor for State=          1
                 1             2             3 
      1  -0.214393D-03 -0.491812D-02  0.000000D+00
      2  -0.284537D-02  0.100808D-01  0.000000D+00
      3  -0.285671D+02 -0.144475D+02  0.106526D-01
         2        -0.0048     -0.0418     -0.0278     -0.0248
 Total R(velocity) tensor for State=          2
                 1             2             3 
      1  -0.481583D-02  0.481059D-01  0.121221D+03
      2  -0.537235D-02 -0.418440D-01  0.290042D+02
      3   0.691715D+00  0.874530D+01 -0.277973D-01
         3         0.0229      0.0051     -0.0026      0.0084
 Total R(velocity) tensor for State=          3
                 1             2             3 
      1   0.228516D-01 -0.866061D-01  0.381289D-04
      2   0.676079D-02  0.514116D-02  0.104559D-04
      3  -0.161311D+01  0.451574D+01 -0.264871D-02
         4        -0.0020     -0.0065     -0.0028     -0.0038
 Total R(velocity) tensor for State=          4
                 1             2             3 
      1  -0.203480D-02  0.291132D-02 -0.827506D-05
      2   0.337335D-01 -0.654638D-02 -0.309151D-05
      3   0.190445D+01  0.422933D+00 -0.283936D-02
         5        -0.0134     -0.0138     -0.0109     -0.0127
 Total R(velocity) tensor for State=          5
                 1             2             3 
      1  -0.134402D-01 -0.262042D-01  0.877467D+02
      2  -0.162652D-02 -0.137768D-01 -0.402893D+02
      3   0.418629D+01  0.138557D+02 -0.108694D-01
         6         0.0110      0.0267      0.0149      0.0175
 Total R(velocity) tensor for State=          6
                 1             2             3 
      1   0.110336D-01 -0.919961D-02 -0.477614D+02
      2  -0.406465D-01  0.266531D-01 -0.110326D+03
      3   0.288808D+01 -0.209198D+01  0.149155D-01
         7        -0.0464      0.0562      0.0137      0.0078
 Total R(velocity) tensor for State=          7
                 1             2             3 
      1  -0.464074D-01  0.802052D-01 -0.281107D-05
      2  -0.326358D-01  0.561886D-01 -0.208314D-05
      3   0.451928D+02 -0.559499D+02  0.136685D-01
         8        -0.0157     -0.0082     -0.0010     -0.0083
 Total R(velocity) tensor for State=          8
                 1             2             3 
      1  -0.157178D-01 -0.838751D-02 -0.444955D-04
      2  -0.174747D-01 -0.818629D-02  0.986738D-05
      3   0.667153D-01  0.123096D-01 -0.102483D-02
         9         0.0144      0.0090      0.0015      0.0083
 Total R(velocity) tensor for State=          9
                 1             2             3 
      1   0.144024D-01  0.113995D-01 -0.176744D+02
      2   0.727260D-02  0.898863D-02  0.167271D+02
      3   0.183803D+01  0.173903D+01  0.150376D-02
        10        -0.0450     -0.0001     -0.0286     -0.0246
 Total R(velocity) tensor for State=         10
                 1             2             3 
      1  -0.450304D-01 -0.396927D-02 -0.212850D+03
      2   0.435262D-01 -0.141880D-03 -0.432255D+02
      3  -0.420782D+02 -0.530621D+00 -0.286470D-01
 1/2[<0|r|b>*<b|rxdel|0> + (<0|rxdel|b>*<b|r|0>)*]
 Rotatory Strengths (R) in cgs (10**-40 erg-esu-cm/Gauss)
       state          XX          YY          ZZ     R(length)     R(au)
         1         0.0219     -0.0028     -0.0016      0.0058      0.0000
         2        -0.0703      0.0058      0.0074     -0.0190      0.0000
         3        -0.0018     -0.0074      0.0136      0.0015      0.0000
         4        -0.0033     -0.0029     -0.0010     -0.0024      0.0000
         5        -0.0113     -0.0192     -0.0084     -0.0130      0.0000
         6         0.0247      0.0295     -0.0011      0.0177      0.0000
         7         0.1000     -0.0722     -0.0031      0.0082      0.0000
         8        -0.0073     -0.0147     -0.0020     -0.0080      0.0000
         9         0.0114      0.0146     -0.0001      0.0087      0.0000
        10        -0.0007     -0.0818      0.0000     -0.0275     -0.0001
  1/2[<0|del|b>*<b|r|0> + (<0|r|b>*<b|del|0>)*] (Au)
       state          X           Y           Z        Dip. S.   Osc.(frdel)
         1         0.0000      0.0000     -0.0017      0.0017      0.0011
         2        -0.1420     -0.0011      0.0000      0.1430      0.0954
         3         0.0000      0.0000     -0.0086      0.0086      0.0058
         4         0.0000      0.0000     -0.0007      0.0007      0.0005
         5        -0.3235     -0.0289      0.0000      0.3524      0.2349
         6        -0.0647     -0.1400      0.0000      0.2047      0.1365
         7         0.0000      0.0000     -0.0065      0.0065      0.0043
         8         0.0000      0.0000      0.0000      0.0000      0.0000
         9        -0.0038     -0.0047      0.0000      0.0084      0.0056
        10         0.0000     -0.1545      0.0000      0.1545      0.1030
 Ground to excited state transition densities written to RWF  633

 Excitation energies and oscillator strengths:
 
 Excited state symmetry could not be determined.
 Excited State   1:      Singlet-?Sym    5.6334 eV  220.09 nm  f=0.0010  <S**2>=0.000
      12 -> 13         0.70633
 This state for optimization and/or second-order correction.
 Copying the excited state density for this state as the 1-particle RhoCI density.
 
 Excited state symmetry could not be determined.
 Excited State   2:      Singlet-?Sym    7.9127 eV  156.69 nm  f=0.0978  <S**2>=0.000
      11 -> 13         0.61688
      12 -> 14         0.32681
 
 Excited state symmetry could not be determined.
 Excited State   3:      Singlet-?Sym    8.3335 eV  148.78 nm  f=0.0027  <S**2>=0.000
      10 -> 14         0.10836
      11 -> 14         0.69697
 
 Excited state symmetry could not be determined.
 Excited State   4:      Singlet-?Sym    9.1919 eV  134.88 nm  f=0.0003  <S**2>=0.000
      11 -> 15         0.69144
      11 -> 16        -0.10294
 
 Excited state symmetry could not be determined.
 Excited State   5:      Singlet-?Sym    9.2631 eV  133.85 nm  f=0.2535  <S**2>=0.000
      11 -> 13        -0.29357
      12 -> 14         0.59248
      12 -> 15        -0.23135
 
 Excited state symmetry could not be determined.
 Excited State   6:      Singlet-?Sym    9.5677 eV  129.59 nm  f=0.1381  <S**2>=0.000
      10 -> 13        -0.11374
      11 -> 13        -0.12163
      12 -> 14         0.17927
      12 -> 15         0.65336
 
 Excited state symmetry could not be determined.
 Excited State   7:      Singlet-?Sym   10.1310 eV  122.38 nm  f=0.0028  <S**2>=0.000
       9 -> 13         0.70423
 
 Excited state symmetry could not be determined.
 Excited State   8:      Singlet-?Sym   10.7644 eV  115.18 nm  f=0.0000  <S**2>=0.000
      11 -> 15         0.11521
      11 -> 16         0.68449
 
 Excited state symmetry could not be determined.
 Excited State   9:      Singlet-?Sym   10.8719 eV  114.04 nm  f=0.0058  <S**2>=0.000
      10 -> 13        -0.17613
      12 -> 16         0.66430
      12 -> 17        -0.10100
 
 Excited state symmetry could not be determined.
 Excited State  10:      Singlet-?Sym   11.4920 eV  107.89 nm  f=0.1131  <S**2>=0.000
      10 -> 13         0.64700
      12 -> 16         0.19850
 SavETr:  write IOETrn=   770 NScale= 10 NData=  16 NLR=1 LETran=     190.
 FoFJK:  IHMeth= 1 ICntrl=     0 DoSepK=T KAlg= 1 I1Cent= 0 FoldK=F
 FoFJK:  IHMeth= 1 ICntrl=     0 DoSepK=T KAlg= 1 I1Cent= 0 FoldK=F
          IDoAtm=111111
          Differentiating once with respect to electric field.
                with respect to dipole field.
          Differentiating once with respect to nuclear coordinates.
          There are     1 degrees of freedom in the 1st order CPHF.  IDoFFX=0.
 FoFJK:  IHMeth= 1 ICntrl=     0 DoSepK=T KAlg= 1 I1Cent= 0 FoldK=F
 LinEq1:  Iter=  0 NonCon=     1 RMS=4.73D-02 Max=7.02D-01
 AX will form     1 AO Fock derivatives at one time.
 FoFJK:  IHMeth= 1 ICntrl=     0 DoSepK=T KAlg= 1 I1Cent= 0 FoldK=F
 LinEq1:  Iter=  1 NonCon=     1 RMS=1.03D-02 Max=1.02D-01
 FoFJK:  IHMeth= 1 ICntrl=     0 DoSepK=T KAlg= 1 I1Cent= 0 FoldK=F
 LinEq1:  Iter=  2 NonCon=     1 RMS=5.37D-03 Max=6.31D-02
 FoFJK:  IHMeth= 1 ICntrl=     0 DoSepK=T KAlg= 1 I1Cent= 0 FoldK=F
 LinEq1:  Iter=  3 NonCon=     1 RMS=2.07D-03 Max=2.04D-02
 FoFJK:  IHMeth= 1 ICntrl=     0 DoSepK=T KAlg= 1 I1Cent= 0 FoldK=F
 LinEq1:  Iter=  4 NonCon=     1 RMS=8.43D-04 Max=8.61D-03
 FoFJK:  IHMeth= 1 ICntrl=     0 DoSepK=T KAlg= 1 I1Cent= 0 FoldK=F
 LinEq1:  Iter=  5 NonCon=     1 RMS=2.42D-04 Max=1.81D-03
 FoFJK:  IHMeth= 1 ICntrl=     0 DoSepK=T KAlg= 1 I1Cent= 0 FoldK=F
 LinEq1:  Iter=  6 NonCon=     1 RMS=5.07D-05 Max=3.95D-04
 FoFJK:  IHMeth= 1 ICntrl=     0 DoSepK=T KAlg= 1 I1Cent= 0 FoldK=F
 LinEq1:  Iter=  7 NonCon=     1 RMS=1.13D-05 Max=8.65D-05
 FoFJK:  IHMeth= 1 ICntrl=     0 DoSepK=T KAlg= 1 I1Cent= 0 FoldK=F
 LinEq1:  Iter=  8 NonCon=     1 RMS=1.95D-06 Max=1.46D-05
 FoFJK:  IHMeth= 1 ICntrl=     0 DoSepK=T KAlg= 1 I1Cent= 0 FoldK=F
 LinEq1:  Iter=  9 NonCon=     1 RMS=2.77D-07 Max=2.02D-06
 FoFJK:  IHMeth= 1 ICntrl=     0 DoSepK=T KAlg= 1 I1Cent= 0 FoldK=F
 LinEq1:  Iter= 10 NonCon=     1 RMS=3.34D-08 Max=2.78D-07
 FoFJK:  IHMeth= 1 ICntrl=     0 DoSepK=T KAlg= 1 I1Cent= 0 FoldK=F
 LinEq1:  Iter= 11 NonCon=     1 RMS=5.38D-09 Max=4.33D-08
 FoFJK:  IHMeth= 1 ICntrl=     0 DoSepK=T KAlg= 1 I1Cent= 0 FoldK=F
 LinEq1:  Iter= 12 NonCon=     1 RMS=6.94D-10 Max=4.34D-09
 FoFJK:  IHMeth= 1 ICntrl=     0 DoSepK=T KAlg= 1 I1Cent= 0 FoldK=F
 LinEq1:  Iter= 13 NonCon=     1 RMS=9.74D-11 Max=1.24D-09
 FoFJK:  IHMeth= 1 ICntrl=     0 DoSepK=T KAlg= 1 I1Cent= 0 FoldK=F
 LinEq1:  Iter= 14 NonCon=     0 RMS=2.76D-11 Max=4.49D-10
 Linear equations converged to 1.000D-10 1.000D-09 after    14 iterations.
 FoFJK:  IHMeth= 1 ICntrl=     0 DoSepK=T KAlg= 1 I1Cent= 0 FoldK=F
 End of Minotr Frequency-dependent properties file   721 does not exist.
 End of Minotr Frequency-dependent properties file   722 does not exist.

 **********************************************************************

            Population analysis using the SCF density.

 **********************************************************************

 Alpha  occ. eigenvalues --  -19.18994 -14.43857 -10.36851  -1.10652  -0.98492
 Alpha  occ. eigenvalues --   -0.69730  -0.62258  -0.54379  -0.47574  -0.46824
 Alpha  occ. eigenvalues --   -0.33309  -0.31856
 Alpha virt. eigenvalues --    0.08216   0.12193   0.15863   0.21374   0.31899
 Alpha virt. eigenvalues --    0.39691   0.59352   0.60365   0.70690   0.73597
 Alpha virt. eigenvalues --    0.74767   0.77663   0.88321   0.89912   0.90712
 Alpha virt. eigenvalues --    0.93216   1.07054   1.14025   1.27083   1.33774
 Alpha virt. eigenvalues --    1.39890   1.45193   1.57183   1.57353   1.82391
 Alpha virt. eigenvalues --    1.89592   1.90431   2.03606   2.07108   2.13912
 Alpha virt. eigenvalues --    2.18418   2.19068   2.33369   2.42560   2.55806
 Alpha virt. eigenvalues --    2.58303   2.67772   2.79874   2.81798   2.91121
 Alpha virt. eigenvalues --    3.05103   3.06325   3.29719   3.50692   3.69053
 Alpha virt. eigenvalues --    3.93391   4.01369   4.44375
          Condensed to atoms (all electrons):
              1          2          3          4          5          6
     1  C    4.374437   0.253504   0.606905  -0.009125  -0.010489   0.377404
     2  N    0.253504   6.883445  -0.086179   0.321774   0.328664  -0.117767
     3  O    0.606905  -0.086179   7.980849   0.006146   0.002965  -0.052124
     4  H   -0.009125   0.321774   0.006146   0.410123  -0.021406   0.007055
     5  H   -0.010489   0.328664   0.002965  -0.021406   0.419746   0.003885
     6  H    0.377404  -0.117767  -0.052124   0.007055   0.003885   0.708974
 Mulliken atomic charges:
              1
     1  C    0.407363
     2  N   -0.583442
     3  O   -0.458562
     4  H    0.285434
     5  H    0.276634
     6  H    0.072572
 Sum of Mulliken atomic charges =   0.00000
 Mulliken charges with hydrogens summed into heavy atoms:
              1
     1  C    0.479936
     2  N   -0.021374
     3  O   -0.458562
 Sum of Mulliken charges with hydrogens summed into heavy atoms =   0.00000
 Electronic spatial extent (au):  <R**2>=            147.3792
 Charge=              0.0000 electrons
 Dipole moment (field-independent basis, Debye):
    X=              3.8259    Y=              0.7993    Z=              0.0009  Tot=              3.9085
 Quadrupole moment (field-independent basis, Debye-Ang):
   XX=            -17.3749   YY=            -14.9661   ZZ=            -18.4499
   XY=             -1.0784   XZ=              0.0015   YZ=             -0.0002
 Traceless Quadrupole moment (field-independent basis, Debye-Ang):
   XX=             -0.4446   YY=              1.9642   ZZ=             -1.5196
   XY=             -1.0784   XZ=              0.0015   YZ=             -0.0002
 Octapole moment (field-independent basis, Debye-Ang**2):
  XXX=             12.2366  YYY=             -2.6245  ZZZ=              0.0006  XYY=              2.7364
  XXY=              0.8159  XXZ=              0.0028  XZZ=             -1.5282  YZZ=             -0.3282
  YYZ=              0.0006  XYZ=             -0.0001
 Hexadecapole moment (field-independent basis, Debye-Ang**3):
 XXXX=           -106.3876 YYYY=            -32.9797 ZZZZ=            -15.5899 XXXY=              2.7475
 XXXZ=              0.0046 YYYX=             -3.0480 YYYZ=             -0.0006 ZZZX=              0.0003
 ZZZY=             -0.0002 XXYY=            -22.6279 XXZZ=            -23.8608 YYZZ=             -9.1387
 XXYZ=              0.0002 YYXZ=              0.0007 ZZXY=              0.3263
 N-N= 7.056945176933D+01 E-N=-5.389352566769D+02  KE= 1.682268363098D+02
 Calling FoFJK, ICntrl=      5127 FMM=F ISym2X=0 I1Cent= 0 IOpClX= 0 NMat=1 NMatS=1 NMatT=0.
 FoFJK:  IHMeth= 1 ICntrl=  5127 DoSepK=T KAlg= 1 I1Cent= 0 FoldK=F
 -------------------------------------------------------------------
 Center     Atomic                   Forces (Hartrees/Bohr)
 Number     Number              X              Y              Z
 -------------------------------------------------------------------
      1        6           0.107981417    0.121236622    0.000010746
      2        7           0.033180517   -0.036029317   -0.000020738
      3        8          -0.116313211   -0.073773231   -0.000001237
      4        1           0.002689466    0.012418952    0.000005931
      5        1          -0.012864407   -0.006412153    0.000006027
      6        1          -0.014673782   -0.017440873   -0.000000730
 -------------------------------------------------------------------
 Cartesian Forces:  Max     0.121236622 RMS     0.051970180

 GradGradGradGradGradGradGradGradGradGradGradGradGradGradGradGradGradGrad
 Berny optimization.
 Search for a local minimum.
 Step number   1 out of a maximum of    2
 All quantities printed in internal units (Hartrees-Bohrs-Radians)
 Second derivative matrix not updated -- first step.
 The second derivative matrix:
                          X1        Y1        Z1        X2        Y2
           X1           1.25958
           Y1           0.23009   0.86223
           Z1          -0.00001   0.00002   0.13155
           X2          -0.45739   0.12310   0.00003   0.93312
           Y2           0.13083  -0.23396  -0.00002  -0.02096   0.87247
           Z2           0.00001  -0.00001  -0.07664   0.00013  -0.00001
           X3          -0.70717  -0.35741   0.00000  -0.00874  -0.01983
           Y3          -0.36442  -0.33954   0.00000   0.01440   0.03267
           Z3          -0.00001  -0.00001  -0.04263   0.00000   0.00001
           X4           0.01295   0.02936  -0.00001  -0.12709   0.03892
           Y4           0.00118   0.00267   0.00000   0.02924  -0.44501
           Z4           0.00000   0.00000   0.01620  -0.00003   0.00010
           X5          -0.00738  -0.01674  -0.00001  -0.35169  -0.15571
           Y5           0.01073   0.02434   0.00001  -0.14532  -0.22513
           Z5           0.00000   0.00000   0.01353  -0.00013  -0.00007
           X6          -0.10059  -0.00840   0.00000   0.01180   0.02676
           Y6          -0.00841  -0.31575   0.00000  -0.00046  -0.00104
           Z6           0.00000   0.00000  -0.04200   0.00000  -0.00001
                          Z2        X3        Y3        Z3        X4
           Z2           0.16112
           X3           0.00000   0.69899
           Y3           0.00000   0.37790   0.30578
           Z3           0.01309   0.00000   0.00000   0.02016
           X4          -0.00003   0.00000   0.00000   0.00000   0.08965
           Y4           0.00007   0.00000   0.00000   0.00000  -0.03265
           Z4          -0.05540   0.00000   0.00000  -0.00665   0.00002
           X5          -0.00011   0.00000   0.00000   0.00000   0.02450
           Y5          -0.00006   0.00000   0.00000   0.00000  -0.03563
           Z5          -0.05416   0.00000   0.00000   0.00685   0.00002
           X6           0.00000   0.01693  -0.02789   0.00000   0.00000
           Y6           0.00000  -0.00066   0.00109   0.00000   0.00000
           Z6           0.01199   0.00000   0.00000   0.00918   0.00000
                          Y4        Z4        X5        Y5        Z5
           Y4           0.44558
           Z4          -0.00008   0.02722
           X5           0.00223   0.00001   0.33458
           Y5          -0.00324  -0.00002   0.17022   0.20403
           Z5           0.00000   0.01221   0.00012   0.00007   0.02818
           X6           0.00000   0.00000   0.00000   0.00000   0.00000
           Y6           0.00000   0.00000   0.00000   0.00000   0.00000
           Z6           0.00000   0.00642   0.00000   0.00000  -0.00661
                          X6        Y6        Z6
           X6           0.07186
           Y6           0.00953   0.31570
           Z6           0.00000   0.00000   0.02102
     Eigenvalues ---    0.02497   0.04613   0.08530   0.08941   0.14720
     Eigenvalues ---    0.19418   0.22775   0.35396   0.65119   1.10385
     Eigenvalues ---    1.36782   2.16977
 Angle between quadratic step and forces=  53.16 degrees.
 Linear search not attempted -- first point.
 TrRot=  0.003951  0.005128 -0.000011 -0.001418  0.000011 -0.001418
 Variable       Old X    -DE/DX   Delta X   Delta X   Delta X     New X
                                 (Linear)    (Quad)   (Total)
    X1       -0.30310   0.10798   0.00000   0.03793   0.04423  -0.25887
    Y1        0.73799   0.12124   0.00000   0.08984   0.09572   0.83370
    Z1        0.00000   0.00001   0.00000  -0.00001  -0.00002  -0.00002
    X2        2.06131   0.03318   0.00000   0.05301   0.05599   2.11730
    Y2       -0.30455  -0.03603   0.00000  -0.03563  -0.03650  -0.34105
    Z2       -0.00010  -0.00002   0.00000  -0.00009  -0.00013  -0.00022
    X3       -2.28337  -0.11631   0.00000  -0.06271  -0.06015  -2.34352
    Y3       -0.46401  -0.07377   0.00000  -0.03024  -0.01845  -0.48247
    Z3       -0.00001   0.00000   0.00000   0.00002   0.00004   0.00002
    X4        2.23539   0.00269   0.00000   0.04363   0.04125   2.27665
    Y4       -2.21809   0.01242   0.00000  -0.00935  -0.01068  -2.22876
    Z4        0.00028   0.00001   0.00000   0.00007   0.00004   0.00031
    X5        3.64170  -0.01286   0.00000   0.03882   0.04477   3.68648
    Y5        0.78203  -0.00641   0.00000  -0.07062  -0.07594   0.70610
    Z5        0.00050   0.00001   0.00000   0.00013   0.00008   0.00058
    X6       -0.22063  -0.01467   0.00000  -0.13826  -0.12610  -0.34674
    Y6        2.85206  -0.01744   0.00000   0.03972   0.04586   2.89791
    Z6        0.00003   0.00000   0.00000   0.00000  -0.00001   0.00002
         Item               Value     Threshold  Converged?
 Maximum Force            0.121237     0.000450     NO 
 RMS     Force            0.051970     0.000300     NO 
 Maximum Displacement     0.126102     0.001800     NO 
 RMS     Displacement     0.051173     0.001200     NO 
 Predicted change in Energy=-1.442258D-02
 GradGradGradGradGradGradGradGradGradGradGradGradGradGradGradGradGradGrad

 1\1\GINC-CLODOMIRA\Force\RTD-CAM-B3LYP-FC\6-31G(d,p)\C1H3N1O1\DIEGOA\3
 0-Oct-2019\0\\# cam-b3lyp/6-31G** force nosymm td(root=1,nstates=10)\\
 Title\\0,1\C,-0.160394,0.390526,0.\N,1.090797,-0.16116,-0.000052\O,-1.
 20831,-0.245544,-0.000007\H,1.182918,-1.173762,0.000146\H,1.927106,0.4
 13835,0.000266\H,-0.116755,1.509243,0.000014\\Version=EM64L-G09RevA.01
 \HF=-169.8224922\RMSD=4.944e-09\RMSF=5.197e-02\Dipole=0.9811339,0.1514
 66,0.0003604\PG=C01 [X(C1H3N1O1)]\\@


 WE HAVE SEEN THAT MAN ON THE AVERAGE DOES NOT LIVE ABOVE
 TWO-AND-TWENTY YEARS.  DURING THESE TWO AND TWENTY
 YEARS HE IS LIABLE TO TWO AND TWENTY THOUSAND EVILS,
 MANY OF WHICH ARE INCURABLE.  YET EVEN IN THIS DREADFUL STATE
 MEN STILL STRUT AND POSE ON THE STAGE OF LIFE.
 THEY MAKE LOVE AT THE RISK OF DESTRUCTION,
 INTRIGUE, CARRY ON WAR, AND FORM PROJECTS, JUST AS IF THEY
 WERE TO LIVE IN LUXURY AND HAPPINESS FOR A THOUSAND
 AGES.

                                              -- VOLTAIRE
 Job cpu time:  0 days  0 hours  1 minutes 53.1 seconds.
 File lengths (MBytes):  RWF=     14 Int=      0 D2E=      0 Chk=      4 Scr=      1
 Normal termination of Gaussian 09 at Wed Oct 30 15:42:12 2019.
