 Entering Gaussian System, Link 0=g09
 Input=td2.com
 Output=td2.log
 Initial command:
 /home/diegoa/progs/g09/l1.exe /home/diegoa/g09scratch/Gau-7900.inp -scrdir=/home/diegoa/g09scratch/
 Default is to use a total of   4 processors:
                                4 via shared-memory
                                1 via Linda
 Entering Link 1 = /home/diegoa/progs/g09/l1.exe PID=      7902.
  
 Copyright (c) 1988,1990,1992,1993,1995,1998,2003,2009, Gaussian, Inc.
                  All Rights Reserved.
  
 This is part of the Gaussian(R) 09 program.  It is based on
 the Gaussian(R) 03 system (copyright 2003, Gaussian, Inc.),
 the Gaussian(R) 98 system (copyright 1998, Gaussian, Inc.),
 the Gaussian(R) 94 system (copyright 1995, Gaussian, Inc.),
 the Gaussian 92(TM) system (copyright 1992, Gaussian, Inc.),
 the Gaussian 90(TM) system (copyright 1990, Gaussian, Inc.),
 the Gaussian 88(TM) system (copyright 1988, Gaussian, Inc.),
 the Gaussian 86(TM) system (copyright 1986, Carnegie Mellon
 University), and the Gaussian 82(TM) system (copyright 1983,
 Carnegie Mellon University). Gaussian is a federally registered
 trademark of Gaussian, Inc.
  
 This software contains proprietary and confidential information,
 including trade secrets, belonging to Gaussian, Inc.
  
 This software is provided under written license and may be
 used, copied, transmitted, or stored only in accord with that
 written license.
  
 The following legend is applicable only to US Government
 contracts under FAR:
  
                    RESTRICTED RIGHTS LEGEND
  
 Use, reproduction and disclosure by the US Government is
 subject to restrictions as set forth in subparagraphs (a)
 and (c) of the Commercial Computer Software - Restricted
 Rights clause in FAR 52.227-19.
  
 Gaussian, Inc.
 340 Quinnipiac St., Bldg. 40, Wallingford CT 06492
  
  
 ---------------------------------------------------------------
 Warning -- This program may not be used in any manner that
 competes with the business of Gaussian, Inc. or will provide
 assistance to any competitor of Gaussian, Inc.  The licensee
 of this program is prohibited from giving any competitor of
 Gaussian, Inc. access to this program.  By using this program,
 the user acknowledges that Gaussian, Inc. is engaged in the
 business of creating and licensing software in the field of
 computational chemistry and represents and warrants to the
 licensee that it is not a competitor of Gaussian, Inc. and that
 it will not use this program in any manner prohibited above.
 ---------------------------------------------------------------
  

 Cite this work as:
 Gaussian 09, Revision A.01,
 M. J. Frisch, G. W. Trucks, H. B. Schlegel, G. E. Scuseria, 
 M. A. Robb, J. R. Cheeseman, G. Scalmani, V. Barone, B. Mennucci, 
 G. A. Petersson, H. Nakatsuji, M. Caricato, X. Li, H. P. Hratchian, 
 A. F. Izmaylov, J. Bloino, G. Zheng, J. L. Sonnenberg, M. Hada, 
 M. Ehara, K. Toyota, R. Fukuda, J. Hasegawa, M. Ishida, T. Nakajima, 
 Y. Honda, O. Kitao, H. Nakai, T. Vreven, J. A. Montgomery, Jr., 
 J. E. Peralta, F. Ogliaro, M. Bearpark, J. J. Heyd, E. Brothers, 
 K. N. Kudin, V. N. Staroverov, R. Kobayashi, J. Normand, 
 K. Raghavachari, A. Rendell, J. C. Burant, S. S. Iyengar, J. Tomasi, 
 M. Cossi, N. Rega, J. M. Millam, M. Klene, J. E. Knox, J. B. Cross, 
 V. Bakken, C. Adamo, J. Jaramillo, R. Gomperts, R. E. Stratmann, 
 O. Yazyev, A. J. Austin, R. Cammi, C. Pomelli, J. W. Ochterski, 
 R. L. Martin, K. Morokuma, V. G. Zakrzewski, G. A. Voth, 
 P. Salvador, J. J. Dannenberg, S. Dapprich, A. D. Daniels, 
 O. Farkas, J. B. Foresman, J. V. Ortiz, J. Cioslowski, 
 and D. J. Fox, Gaussian, Inc., Wallingford CT, 2009.
 
 ******************************************
 Gaussian 09:  EM64L-G09RevA.01  8-May-2009
                30-Oct-2019 
 ******************************************
 %chk=td2.chk
 %NProcShared=4
 Will use up to    4 processors via shared memory.
 Default route:  MP2=Direct MaxDisk=1000GB DenFit
 --------------------------------------------------
 # pbepbe/6-31G** force nosymm td(root=2,nstates=6)
 --------------------------------------------------
 1/10=7,30=1,38=1/1,3;
 2/12=2,15=1,17=6,18=5,40=1/2;
 3/5=1,6=6,7=101,11=2,16=1,25=1,30=1,71=1,74=1009,82=47/1,2,8,3;
 4//1;
 5/5=2,38=5/2;
 8/6=1,10=2,107=2,108=6/1;
 9/8=2,15=2,41=6,42=1/14;
 10/5=4,31=1/2;
 6/7=2,8=2,9=2,10=2,18=1/1;
 7/12=6,13=5,14=2,29=1,30=1/1,2,3,16;
 1/10=7,30=1/3;
 99//99;
 -----
 Title
 -----
 Symbolic Z-matrix:
 Charge =  0 Multiplicity = 1
 6                    -0.16039   0.39053   0. 
 7                     1.0908   -0.16116  -0.00005 
 8                    -1.20831  -0.24554  -0.00001 
 1                     1.18292  -1.17376   0.00015 
 1                     1.92711   0.41384   0.00027 
 1                    -0.11676   1.50924   0.00001 
 

 GradGradGradGradGradGradGradGradGradGradGradGradGradGradGradGradGradGrad
 Berny optimization.
 Initialization pass.
 Trust Radius=3.00D-01 FncErr=1.00D-07 GrdErr=1.00D-07
 Number of steps in this run=   2 maximum allowed number of steps=   2.
 GradGradGradGradGradGradGradGradGradGradGradGradGradGradGradGradGradGrad

                          Input orientation:                          
 ---------------------------------------------------------------------
 Center     Atomic      Atomic             Coordinates (Angstroms)
 Number     Number       Type             X           Y           Z
 ---------------------------------------------------------------------
      1          6           0       -0.160394    0.390526    0.000000
      2          7           0        1.090797   -0.161160   -0.000052
      3          8           0       -1.208310   -0.245544   -0.000007
      4          1           0        1.182918   -1.173762    0.000146
      5          1           0        1.927106    0.413835    0.000266
      6          1           0       -0.116755    1.509243    0.000014
 ---------------------------------------------------------------------
                    Distance matrix (angstroms):
                    1          2          3          4          5
     1  C    0.000000
     2  N    1.367420   0.000000
     3  O    1.225852   2.300655   0.000000
     4  H    2.061913   1.016784   2.565065   0.000000
     5  H    2.087630   1.014905   3.204000   1.753362   0.000000
     6  H    1.119568   2.061172   2.066584   2.981219   2.318898
                    6
     6  H    0.000000
 Symmetry turned off by external request.
 Stoichiometry    CH3NO
 Framework group  C1[X(CH3NO)]
 Deg. of freedom    12
 Full point group                 C1      NOp   1
 Rotational constants (GHZ):     72.3054691     11.1542536      9.6635062
 Standard basis: 6-31G(d,p) (6D, 7F)
 Integral buffers will be    131072 words long.
 Raffenetti 2 integral format.
 Two-electron integral symmetry is turned off.
    60 basis functions,   105 primitive gaussians,    60 cartesian basis functions
    12 alpha electrons       12 beta electrons
       nuclear repulsion energy        70.5694517693 Hartrees.
 NAtoms=    6 NActive=    6 NUniq=    6 SFac= 7.50D-01 NAtFMM=   80 NAOKFM=F Big=F
 Standard density basis: Auto (5D, 7F)
   276 Density fitting functions
 One-electron integrals computed using PRISM.
 NBasis=    60 RedAO= T  NBF=    60
 NBsUse=    60 1.00D-06 NBFU=    60
 NBasis=       60 NBas6D=       60 NTT=        1830   NTT6D=     1830
 NDBShl=       48 NDBF=        276 NDBF6D=      318  NNucDB=        0
 IDenFi=        2 ISolve=        0 FullAP=F BlkAPC=T NucTyp=        0
 TolInv= 1.00D-05 TolIt=  1.00D-10 IR12=0.
 Symmetry not used in FoFDir.
 MinBra= 0 MaxBra= 3 Meth= 1.
 IRaf=       0 NMat=   1 IRICut=       1 DoRegI=T DoRafI=F ISym2E= 0 JSym2E=0.
  NDBF=   276  NBFD=   276
 NRank=   276 NBFDU=   276
 S*AI*S=  5.04841584297    
 Harris functional with IExCor= 1009 diagonalized for initial guess.
 ExpMin= 1.61D-01 ExpMax= 5.48D+03 ExpMxC= 8.25D+02 IAcc=1 IRadAn=         1 AccDes= 0.00D+00
 HarFok:  IExCor= 1009 AccDes= 0.00D+00 IRadAn=         1 IDoV= 1
 ScaDFX=  1.000000  1.000000  1.000000  1.000000
 FoFCou: FMM=F IPFlag=           0 FMFlag=      100000 FMFlg1=           0
         NFxFlg=           0 DoJE=T BraDBF=F KetDBF=T FulRan=T
         Omega=  0.000000  0.000000  1.000000  0.000000  0.000000 ICntrl=     500 IOpCl=  0
         NMat0=    1 NMatS0=    1 NMatT0=    0 NMatD0=    1 NMtDS0=    0 NMtDT0=    0
         I1Cent=           4 NGrid=           0.
 Symmetry not used in FoFCou.
 Requested convergence on RMS density matrix=1.00D-08 within 128 cycles.
 Requested convergence on MAX density matrix=1.00D-06.
 Requested convergence on             energy=1.00D-06.
 No special actions if energy rises.
 FoFCou: FMM=F IPFlag=           0 FMFlag=      100000 FMFlg1=           0
         NFxFlg=           0 DoJE=T BraDBF=T KetDBF=F FulRan=T
         Omega=  0.000000  0.000000  1.000000  0.000000  0.000000 ICntrl=     500 IOpCl=  0
         NMat0=    1 NMatS0=    1 NMatT0=    0 NMatD0=    1 NMtDS0=    0 NMtDT0=    0
         I1Cent=           5 NGrid=           0.
 Symmetry not used in FoFCou.
 Initial convergence to 1.0D-05 achieved.  Increase integral accuracy.
 SCF Done:  E(RPBE-PBE) =  -169.705123446     A.U. after   14 cycles
             Convg  =    0.5093D-08             -V/T =  2.0092
 ExpMin= 1.61D-01 ExpMax= 5.48D+03 ExpMxC= 8.25D+02 IAcc=1 IRadAn=         1 AccDes= 0.00D+00
 HarFok:  IExCor=  205 AccDes= 0.00D+00 IRadAn=         1 IDoV=-2
 ScaDFX=  1.000000  1.000000  1.000000  1.000000
 Range of M.O.s used for correlation:     4    60
 NBasis=    60 NAE=    12 NBE=    12 NFC=     3 NFV=     0
 NROrb=     57 NOA=     9 NOB=     9 NVA=    48 NVB=    48
    24 initial guesses have been made.
 Convergence on wavefunction:    0.000001000000000
 Iteration     1 Dimension    24 NMult    24
 CISAX will form    24 AO SS matrices at one time.
 New state      2 was old state      3
 New state      3 was old state      4
 New state      4 was old state      5
 New state      5 was old state      6
 New state      6 was old state      2
 Iteration     2 Dimension    48 NMult    48
 New state      5 was old state      6
 New state      6 was old state      5
 Iteration     3 Dimension    54 NMult    54
 Iteration     4 Dimension    60 NMult    60
 Iteration     5 Dimension    66 NMult    66
 Iteration     6 Dimension    72 NMult    72
 Iteration     7 Dimension    78 NMult    78
 Iteration     8 Dimension    84 NMult    84
 Iteration     9 Dimension    90 NMult    90
 Iteration    10 Dimension    96 NMult    96
 Iteration    11 Dimension   102 NMult   102
 Iteration    12 Dimension   108 NMult   108
 Iteration    13 Dimension   112 NMult   112
 Iteration    14 Dimension   116 NMult   116
 Iteration    15 Dimension   120 NMult   120
 Iteration    16 Dimension   121 NMult   121
 ***********************************************************************
 Excited states from <AA,BB:AA,BB> singles matrix:
 ***********************************************************************
 
 Ground to excited state transition electric dipole moments (Au):
       state          X           Y           Z        Dip. S.      Osc.
         1         0.0000      0.0000      0.0861      0.0074      0.0010
         2        -0.1397      0.0351     -0.0001      0.0207      0.0035
         3         0.0005     -0.0003      0.0994      0.0099      0.0019
         4         0.2568     -0.6765     -0.0001      0.5236      0.1018
         5         1.2578      0.0151      0.0000      1.5822      0.3214
         6         0.0006      0.0002     -0.0298      0.0009      0.0002
 Ground to excited state transition velocity dipole moments (Au):
       state          X           Y           Z        Dip. S.      Osc.
         1         0.0000      0.0000     -0.0191      0.0004      0.0012
         2         0.0256     -0.0116      0.0000      0.0008      0.0021
         3        -0.0001      0.0001     -0.0624      0.0039      0.0091
         4        -0.0515      0.1877      0.0000      0.0379      0.0866
         5        -0.3750     -0.0058      0.0000      0.1406      0.3077
         6        -0.0002     -0.0001      0.0185      0.0003      0.0007
 Ground to excited state transition magnetic dipole moments (Au):
       state          X           Y           Z
         1        -0.8887     -0.4336      0.0000
         2         0.0002      0.0001      0.1313
         3        -0.0165      0.2744      0.0002
         4         0.0000     -0.0002      0.2838
         5         0.0001     -0.0001      0.2292
         6        -0.1778     -0.0481     -0.0001
 <0|del|b> * <b|rxdel|0> + <0|del|b> * <b|delr+rdel|0>
 Rotatory Strengths (R) in cgs (10**-40 erg-esu-cm/Gauss)
       state          XX          YY          ZZ    R(velocity)
         1         0.0023     -0.0027      0.0021      0.0006
 Total R(velocity) tensor for State=          1
                 1             2             3 
      1   0.230916D-02  0.162795D-02  0.000000D+00
      2  -0.969900D-02 -0.268370D-02  0.000000D+00
      3  -0.281650D+02 -0.143168D+02  0.214101D-02
         2         0.0060      0.0104      0.0061      0.0075
 Total R(velocity) tensor for State=          2
                 1             2             3 
      1   0.599715D-02 -0.663984D-02 -0.110669D+02
      2   0.824033D-02  0.104143D-01 -0.436574D+01
      3  -0.249323D-01 -0.553057D-01  0.605680D-02
         3         0.0380     -0.0028      0.0078      0.0143
 Total R(velocity) tensor for State=          3
                 1             2             3 
      1   0.380213D-01  0.591176D-01  0.168216D-04
      2  -0.379613D-02 -0.283310D-02  0.283016D-05
      3  -0.201683D+01  0.275448D+01  0.776221D-02
         4        -0.0562      0.0039     -0.0145     -0.0223
 Total R(velocity) tensor for State=          4
                 1             2             3 
      1  -0.561995D-01 -0.193083D-01  0.203477D+02
      2   0.169007D-01  0.391562D-02  0.380577D+01
      3   0.553718D+01  0.152044D+01 -0.145499D-01
         5         0.0057     -0.0706     -0.0363     -0.0337
 Total R(velocity) tensor for State=          5
                 1             2             3 
      1   0.571227D-02 -0.805758D-01  0.142849D+03
      2  -0.654272D-04 -0.705541D-01 -0.367604D+02
      3  -0.227539D+00  0.147889D+02 -0.363475D-01
         6         0.0012      0.0581      0.0185      0.0260
 Total R(velocity) tensor for State=          6
                 1             2             3 
      1   0.119682D-02 -0.630247D-02 -0.146358D-04
      2  -0.252958D-01  0.581258D-01 -0.599577D-05
      3   0.151045D+01  0.859265D+00  0.185437D-01
 1/2[<0|r|b>*<b|rxdel|0> + (<0|rxdel|b>*<b|r|0>)*]
 Rotatory Strengths (R) in cgs (10**-40 erg-esu-cm/Gauss)
       state          XX          YY          ZZ     R(length)     R(au)
         1        -0.0073      0.0020     -0.0022     -0.0025      0.0000
         2         0.0238     -0.0020      0.0108      0.0109      0.0000
         3         0.0055      0.0614     -0.0109      0.0187      0.0000
         4         0.0042     -0.0991      0.0118     -0.0277     -0.0001
         5        -0.1116      0.0014      0.0054     -0.0349     -0.0001
         6         0.0724      0.0075     -0.0019      0.0260      0.0001
  1/2[<0|del|b>*<b|r|0> + (<0|r|b>*<b|del|0>)*] (Au)
       state          X           Y           Z        Dip. S.   Osc.(frdel)
         1         0.0000      0.0000     -0.0016      0.0016      0.0011
         2        -0.0036     -0.0004      0.0000      0.0040      0.0027
         3         0.0000      0.0000     -0.0062      0.0062      0.0041
         4        -0.0132     -0.1270      0.0000      0.1402      0.0935
         5        -0.4716     -0.0001      0.0000      0.4717      0.3145
         6         0.0000      0.0000     -0.0006      0.0006      0.0004
 Ground to excited state transition densities written to RWF  633

 Excitation energies and oscillator strengths:
 
 Excited state symmetry could not be determined.
 Excited State   1:      Singlet-?Sym    5.5368 eV  223.93 nm  f=0.0010  <S**2>=0.000
      12 -> 13         0.70683
 
 Excited state symmetry could not be determined.
 Excited State   2:      Singlet-?Sym    6.8312 eV  181.50 nm  f=0.0035  <S**2>=0.000
      11 -> 13         0.30889
      12 -> 14         0.63483
 This state for optimization and/or second-order correction.
 Copying the excited state density for this state as the 1-particle RhoCI density.
 
 Excited state symmetry could not be determined.
 Excited State   3:      Singlet-?Sym    7.7767 eV  159.43 nm  f=0.0019  <S**2>=0.000
      11 -> 14         0.70383
 
 Excited state symmetry could not be determined.
 Excited State   4:      Singlet-?Sym    7.9351 eV  156.25 nm  f=0.1018  <S**2>=0.000
      11 -> 13         0.18257
      12 -> 15         0.67625
 
 Excited state symmetry could not be determined.
 Excited State   5:      Singlet-?Sym    8.2913 eV  149.53 nm  f=0.3214  <S**2>=0.000
      10 -> 13         0.10574
      11 -> 13         0.58866
      12 -> 14        -0.29388
      12 -> 15        -0.17695
      12 -> 18        -0.11801
 
 Excited state symmetry could not be determined.
 Excited State   6:      Singlet-?Sym    8.5604 eV  144.83 nm  f=0.0002  <S**2>=0.000
      11 -> 15         0.70492
 SavETr:  write IOETrn=   770 NScale= 10 NData=  16 NLR=1 LETran=     118.
          IDoAtm=111111
          Differentiating once with respect to electric field.
                with respect to dipole field.
          Differentiating once with respect to nuclear coordinates.
          There are     1 degrees of freedom in the 1st order CPHF.  IDoFFX=0.
 FoFCou: FMM=F IPFlag=           0 FMFlag=      100000 FMFlg1=           0
         NFxFlg=           0 DoJE=T BraDBF=T KetDBF=F FulRan=T
         Omega=  0.000000  0.000000  1.000000  0.000000  0.000000 ICntrl=     500 IOpCl=  0
         NMat0=    1 NMatS0=    1 NMatT0=    0 NMatD0=    1 NMtDS0=    0 NMtDT0=    0
         I1Cent=           5 NGrid=           0.
 Symmetry not used in FoFCou.
 LinEq1:  Iter=  0 NonCon=     1 RMS=1.18D-01 Max=2.31D+00
 AX will form     1 AO Fock derivatives at one time.
 LinEq1:  Iter=  1 NonCon=     1 RMS=5.85D-02 Max=5.54D-01
 LinEq1:  Iter=  2 NonCon=     1 RMS=2.35D-02 Max=1.69D-01
 LinEq1:  Iter=  3 NonCon=     1 RMS=6.77D-03 Max=6.10D-02
 LinEq1:  Iter=  4 NonCon=     1 RMS=2.14D-03 Max=3.36D-02
 LinEq1:  Iter=  5 NonCon=     1 RMS=8.45D-04 Max=5.63D-03
 LinEq1:  Iter=  6 NonCon=     1 RMS=1.65D-04 Max=9.03D-04
 LinEq1:  Iter=  7 NonCon=     1 RMS=3.69D-05 Max=2.41D-04
 LinEq1:  Iter=  8 NonCon=     1 RMS=5.92D-06 Max=3.94D-05
 LinEq1:  Iter=  9 NonCon=     1 RMS=1.24D-06 Max=7.64D-06
 LinEq1:  Iter= 10 NonCon=     1 RMS=1.43D-07 Max=8.80D-07
 LinEq1:  Iter= 11 NonCon=     1 RMS=2.40D-08 Max=2.29D-07
 LinEq1:  Iter= 12 NonCon=     1 RMS=2.44D-09 Max=1.20D-08
 LinEq1:  Iter= 13 NonCon=     1 RMS=4.08D-10 Max=2.83D-09
 LinEq1:  Iter= 14 NonCon=     0 RMS=9.98D-11 Max=9.35D-10
 Linear equations converged to 1.000D-10 1.000D-09 after    14 iterations.
 End of Minotr Frequency-dependent properties file   721 does not exist.
 End of Minotr Frequency-dependent properties file   722 does not exist.

 **********************************************************************

            Population analysis using the SCF density.

 **********************************************************************

 Alpha  occ. eigenvalues --  -18.73913 -14.03415  -9.99024  -0.93381  -0.82356
 Alpha  occ. eigenvalues --   -0.56061  -0.49700  -0.41858  -0.34961  -0.34842
 Alpha  occ. eigenvalues --   -0.22895  -0.20126
 Alpha virt. eigenvalues --   -0.00612   0.04837   0.08345   0.13586   0.23881
 Alpha virt. eigenvalues --    0.29750   0.50392   0.51041   0.60573   0.62313
 Alpha virt. eigenvalues --    0.63464   0.66863   0.78282   0.78354   0.79294
 Alpha virt. eigenvalues --    0.82438   0.94783   1.02484   1.16105   1.21923
 Alpha virt. eigenvalues --    1.26446   1.31507   1.43444   1.45457   1.68461
 Alpha virt. eigenvalues --    1.74947   1.76215   1.89114   1.92348   1.99459
 Alpha virt. eigenvalues --    2.03786   2.04317   2.18751   2.27788   2.40702
 Alpha virt. eigenvalues --    2.43672   2.52222   2.64623   2.66153   2.75772
 Alpha virt. eigenvalues --    2.89556   2.90807   3.14451   3.35190   3.53010
 Alpha virt. eigenvalues --    3.77681   3.85521   4.29094
          Condensed to atoms (all electrons):
              1          2          3          4          5          6
     1  C    4.470415   0.238254   0.593139  -0.006274  -0.004386   0.360544
     2  N    0.238254   6.915455  -0.087434   0.303889   0.305432  -0.127326
     3  O    0.593139  -0.087434   7.959110   0.007845   0.003571  -0.054908
     4  H   -0.006274   0.303889   0.007845   0.426854  -0.020212   0.008568
     5  H   -0.004386   0.305432   0.003571  -0.020212   0.437424   0.006795
     6  H    0.360544  -0.127326  -0.054908   0.008568   0.006795   0.735744
 Mulliken atomic charges:
              1
     1  C    0.348307
     2  N   -0.548271
     3  O   -0.421324
     4  H    0.279329
     5  H    0.271376
     6  H    0.070582
 Sum of Mulliken atomic charges =   0.00000
 Mulliken charges with hydrogens summed into heavy atoms:
              1
     1  C    0.418889
     2  N    0.002435
     3  O   -0.421324
 Sum of Mulliken charges with hydrogens summed into heavy atoms =   0.00000
 Electronic spatial extent (au):  <R**2>=            147.2378
 Charge=              0.0000 electrons
 Dipole moment (field-independent basis, Debye):
    X=              3.6879    Y=              0.5973    Z=              0.0008  Tot=              3.7360
 Quadrupole moment (field-independent basis, Debye-Ang):
   XX=            -17.0300   YY=            -15.1481   ZZ=            -18.4225
   XY=             -1.0320   XZ=              0.0015   YZ=             -0.0001
 Traceless Quadrupole moment (field-independent basis, Debye-Ang):
   XX=             -0.1631   YY=              1.7188   ZZ=             -1.5556
   XY=             -1.0320   XZ=              0.0015   YZ=             -0.0001
 Octapole moment (field-independent basis, Debye-Ang**2):
  XXX=             11.5697  YYY=             -2.9637  ZZZ=              0.0006  XYY=              2.5794
  XXY=              0.6623  XXZ=              0.0027  XZZ=             -1.5117  YZZ=             -0.4401
  YYZ=              0.0006  XYZ=             -0.0001
 Hexadecapole moment (field-independent basis, Debye-Ang**3):
 XXXX=           -105.7740 YYYY=            -33.8525 ZZZZ=            -15.5474 XXXY=              2.7278
 XXXZ=              0.0043 YYYX=             -2.9210 YYYZ=             -0.0006 ZZZX=              0.0002
 ZZZY=             -0.0002 XXYY=            -22.6841 XXZZ=            -23.6121 YYZZ=             -9.1937
 XXYZ=              0.0002 YYXZ=              0.0006 ZZXY=              0.3273
 N-N= 7.056945176933D+01 E-N=-5.388510792266D+02  KE= 1.681529475278D+02
 Fitting Gamma and (X+Y) densities for TD-KS first derivatives, JSym2E=0.
 Calling FoFJK, ICntrl=      5527 FMM=F ISym2X=0 I1Cent= 4 IOpClX= 0 NMat=1 NMatS=1 NMatT=0.
 -------------------------------------------------------------------
 Center     Atomic                   Forces (Hartrees/Bohr)
 Number     Number              X              Y              Z
 -------------------------------------------------------------------
      1        6           0.139546852    0.039012253    0.000003335
      2        7          -0.105642355    0.004014910   -0.000008174
      3        8          -0.091158529   -0.037112341   -0.000004273
      4        1           0.002951303   -0.053776616   -0.000003027
      5        1           0.070126816    0.059582766    0.000015824
      6        1          -0.015824086   -0.011720971   -0.000003684
 -------------------------------------------------------------------
 Cartesian Forces:  Max     0.139546852 RMS     0.054576757

 GradGradGradGradGradGradGradGradGradGradGradGradGradGradGradGradGradGrad
 Berny optimization.
 Search for a local minimum.
 Step number   1 out of a maximum of    2
 All quantities printed in internal units (Hartrees-Bohrs-Radians)
 Second derivative matrix not updated -- first step.
 The second derivative matrix:
                          X1        Y1        Z1        X2        Y2
           X1           1.25958
           Y1           0.23009   0.86223
           Z1          -0.00001   0.00002   0.13155
           X2          -0.45739   0.12310   0.00003   0.93312
           Y2           0.13083  -0.23396  -0.00002  -0.02096   0.87247
           Z2           0.00001  -0.00001  -0.07664   0.00013  -0.00001
           X3          -0.70717  -0.35741   0.00000  -0.00874  -0.01983
           Y3          -0.36442  -0.33954   0.00000   0.01440   0.03267
           Z3          -0.00001  -0.00001  -0.04263   0.00000   0.00001
           X4           0.01295   0.02936  -0.00001  -0.12709   0.03892
           Y4           0.00118   0.00267   0.00000   0.02924  -0.44501
           Z4           0.00000   0.00000   0.01620  -0.00003   0.00010
           X5          -0.00738  -0.01674  -0.00001  -0.35169  -0.15571
           Y5           0.01073   0.02434   0.00001  -0.14532  -0.22513
           Z5           0.00000   0.00000   0.01353  -0.00013  -0.00007
           X6          -0.10059  -0.00840   0.00000   0.01180   0.02676
           Y6          -0.00841  -0.31575   0.00000  -0.00046  -0.00104
           Z6           0.00000   0.00000  -0.04200   0.00000  -0.00001
                          Z2        X3        Y3        Z3        X4
           Z2           0.16112
           X3           0.00000   0.69899
           Y3           0.00000   0.37790   0.30578
           Z3           0.01309   0.00000   0.00000   0.02016
           X4          -0.00003   0.00000   0.00000   0.00000   0.08965
           Y4           0.00007   0.00000   0.00000   0.00000  -0.03265
           Z4          -0.05540   0.00000   0.00000  -0.00665   0.00002
           X5          -0.00011   0.00000   0.00000   0.00000   0.02450
           Y5          -0.00006   0.00000   0.00000   0.00000  -0.03563
           Z5          -0.05416   0.00000   0.00000   0.00685   0.00002
           X6           0.00000   0.01693  -0.02789   0.00000   0.00000
           Y6           0.00000  -0.00066   0.00109   0.00000   0.00000
           Z6           0.01199   0.00000   0.00000   0.00918   0.00000
                          Y4        Z4        X5        Y5        Z5
           Y4           0.44558
           Z4          -0.00008   0.02722
           X5           0.00223   0.00001   0.33458
           Y5          -0.00324  -0.00002   0.17022   0.20403
           Z5           0.00000   0.01221   0.00012   0.00007   0.02818
           X6           0.00000   0.00000   0.00000   0.00000   0.00000
           Y6           0.00000   0.00000   0.00000   0.00000   0.00000
           Z6           0.00000   0.00642   0.00000   0.00000  -0.00661
                          X6        Y6        Z6
           X6           0.07186
           Y6           0.00953   0.31570
           Z6           0.00000   0.00000   0.02102
     Eigenvalues ---    0.02497   0.04613   0.08530   0.08941   0.14720
     Eigenvalues ---    0.19418   0.22775   0.35396   0.65119   1.10385
     Eigenvalues ---    1.36782   2.16977
 Quadratic step=3.093D-01 exceeds max=3.000D-01 adjusted using Lamda=-5.327D-03.
 Angle between NR and scaled steps=   1.70 degrees.
 Angle between quadratic step and forces=  51.76 degrees.
 Linear search not attempted -- first point.
 TrRot= -0.012436  0.010381  0.000021 -0.005141 -0.000013 -0.005141
 Variable       Old X    -DE/DX   Delta X   Delta X   Delta X     New X
                                 (Linear)    (Quad)   (Total)
    X1       -0.30310   0.13955   0.00000   0.07151   0.06639  -0.23671
    Y1        0.73799   0.03901   0.00000  -0.02764  -0.01491   0.72308
    Z1        0.00000   0.00000   0.00000   0.00007   0.00009   0.00009
    X2        2.06131  -0.10564   0.00000   0.00332  -0.01253   2.04877
    Y2       -0.30455   0.00401   0.00000  -0.01701  -0.02784  -0.33238
    Z2       -0.00010  -0.00001   0.00000   0.00010   0.00015   0.00005
    X3       -2.28337  -0.09116   0.00000  -0.09289  -0.10954  -2.39292
    Y3       -0.46401  -0.03711   0.00000   0.04205   0.07688  -0.38713
    Z3       -0.00001   0.00000   0.00000  -0.00004  -0.00005  -0.00007
    X4        2.23539   0.00295   0.00000   0.03936   0.00264   2.23803
    Y4       -2.21809  -0.05378   0.00000  -0.13248  -0.14537  -2.36345
    Z4        0.00028   0.00000   0.00000  -0.00012  -0.00007   0.00021
    X5        3.64170   0.07013   0.00000   0.10678   0.10411   3.74581
    Y5        0.78203   0.05958   0.00000   0.18653   0.15832   0.94036
    Z5        0.00050   0.00002   0.00000  -0.00013  -0.00006   0.00045
    X6       -0.22063  -0.01582   0.00000  -0.06734  -0.05105  -0.27169
    Y6        2.85206  -0.01172   0.00000  -0.06028  -0.04709   2.80497
    Z6        0.00003   0.00000   0.00000  -0.00008  -0.00006  -0.00003
         Item               Value     Threshold  Converged?
 Maximum Force            0.139547     0.000450     NO 
 RMS     Force            0.054577     0.000300     NO 
 Maximum Displacement     0.158322     0.001800     NO 
 RMS     Displacement     0.068855     0.001200     NO 
 Predicted change in Energy=-2.174067D-02
 GradGradGradGradGradGradGradGradGradGradGradGradGradGradGradGradGradGrad

 1\1\GINC-CLODOMIRA\Force\RTD-PBEPBE-FC\6-31G(d,p)\C1H3N1O1\DIEGOA\30-O
 ct-2019\0\\# pbepbe/6-31G** force nosymm td(root=2,nstates=6)\\Title\\
 0,1\C,-0.160394,0.390526,0.\N,1.090797,-0.16116,-0.000052\O,-1.20831,-
 0.245544,-0.000007\H,1.182918,-1.173762,0.000146\H,1.927106,0.413835,0
 .000266\H,-0.116755,1.509243,0.000014\\Version=EM64L-G09RevA.01\HF=-16
 9.7051234\RMSD=5.093e-09\RMSF=5.458e-02\Dipole=-0.7695247,0.4858924,-0
 .0000462\PG=C01 [X(C1H3N1O1)]\\@


 EVANS BOLDLY PUT 50 ATM. OF ETHYLENE IN A CELL WITH 25 ATM. OF OXYGEN.
 THE APPARATUS SUBSEQUENTLY BLEW UP, BUT LUCKILY NOT BEFORE HE
 OBTAINED THE SPECTRA SHOWN IN FIGURE 8.
 A.J.MERER AND R.S.MULLIKEN, CHEM.REV. 69, 645 (1969)
 Job cpu time:  0 days  0 hours  1 minutes 34.3 seconds.
 File lengths (MBytes):  RWF=     13 Int=      0 D2E=      0 Chk=      3 Scr=      1
 Normal termination of Gaussian 09 at Wed Oct 30 15:42:37 2019.
