 Entering Gaussian System, Link 0=g09
 Input=freq.com
 Output=freq.log
 Initial command:
 /home/diegoa/progs/g09/l1.exe /home/diegoa/g09scratch/Gau-15324.inp -scrdir=/home/diegoa/g09scratch/
 Default is to use a total of   4 processors:
                                4 via shared-memory
                                1 via Linda
 Entering Link 1 = /home/diegoa/progs/g09/l1.exe PID=     15327.
  
 Copyright (c) 1988,1990,1992,1993,1995,1998,2003,2009, Gaussian, Inc.
                  All Rights Reserved.
  
 This is part of the Gaussian(R) 09 program.  It is based on
 the Gaussian(R) 03 system (copyright 2003, Gaussian, Inc.),
 the Gaussian(R) 98 system (copyright 1998, Gaussian, Inc.),
 the Gaussian(R) 94 system (copyright 1995, Gaussian, Inc.),
 the Gaussian 92(TM) system (copyright 1992, Gaussian, Inc.),
 the Gaussian 90(TM) system (copyright 1990, Gaussian, Inc.),
 the Gaussian 88(TM) system (copyright 1988, Gaussian, Inc.),
 the Gaussian 86(TM) system (copyright 1986, Carnegie Mellon
 University), and the Gaussian 82(TM) system (copyright 1983,
 Carnegie Mellon University). Gaussian is a federally registered
 trademark of Gaussian, Inc.
  
 This software contains proprietary and confidential information,
 including trade secrets, belonging to Gaussian, Inc.
  
 This software is provided under written license and may be
 used, copied, transmitted, or stored only in accord with that
 written license.
  
 The following legend is applicable only to US Government
 contracts under FAR:
  
                    RESTRICTED RIGHTS LEGEND
  
 Use, reproduction and disclosure by the US Government is
 subject to restrictions as set forth in subparagraphs (a)
 and (c) of the Commercial Computer Software - Restricted
 Rights clause in FAR 52.227-19.
  
 Gaussian, Inc.
 340 Quinnipiac St., Bldg. 40, Wallingford CT 06492
  
  
 ---------------------------------------------------------------
 Warning -- This program may not be used in any manner that
 competes with the business of Gaussian, Inc. or will provide
 assistance to any competitor of Gaussian, Inc.  The licensee
 of this program is prohibited from giving any competitor of
 Gaussian, Inc. access to this program.  By using this program,
 the user acknowledges that Gaussian, Inc. is engaged in the
 business of creating and licensing software in the field of
 computational chemistry and represents and warrants to the
 licensee that it is not a competitor of Gaussian, Inc. and that
 it will not use this program in any manner prohibited above.
 ---------------------------------------------------------------
  

 Cite this work as:
 Gaussian 09, Revision A.01,
 M. J. Frisch, G. W. Trucks, H. B. Schlegel, G. E. Scuseria, 
 M. A. Robb, J. R. Cheeseman, G. Scalmani, V. Barone, B. Mennucci, 
 G. A. Petersson, H. Nakatsuji, M. Caricato, X. Li, H. P. Hratchian, 
 A. F. Izmaylov, J. Bloino, G. Zheng, J. L. Sonnenberg, M. Hada, 
 M. Ehara, K. Toyota, R. Fukuda, J. Hasegawa, M. Ishida, T. Nakajima, 
 Y. Honda, O. Kitao, H. Nakai, T. Vreven, J. A. Montgomery, Jr., 
 J. E. Peralta, F. Ogliaro, M. Bearpark, J. J. Heyd, E. Brothers, 
 K. N. Kudin, V. N. Staroverov, R. Kobayashi, J. Normand, 
 K. Raghavachari, A. Rendell, J. C. Burant, S. S. Iyengar, J. Tomasi, 
 M. Cossi, N. Rega, J. M. Millam, M. Klene, J. E. Knox, J. B. Cross, 
 V. Bakken, C. Adamo, J. Jaramillo, R. Gomperts, R. E. Stratmann, 
 O. Yazyev, A. J. Austin, R. Cammi, C. Pomelli, J. W. Ochterski, 
 R. L. Martin, K. Morokuma, V. G. Zakrzewski, G. A. Voth, 
 P. Salvador, J. J. Dannenberg, S. Dapprich, A. D. Daniels, 
 O. Farkas, J. B. Foresman, J. V. Ortiz, J. Cioslowski, 
 and D. J. Fox, Gaussian, Inc., Wallingford CT, 2009.
 
 ******************************************
 Gaussian 09:  EM64L-G09RevA.01  8-May-2009
                 8-Oct-2019 
 ******************************************
 %chk=freq.chk
 %NProcShared=4
 Will use up to    4 processors via shared memory.
 Default route:  MP2=Direct MaxDisk=1000GB DenFit
 --------------------------------------------------------
 # b3lyp/6-31G(d) opt freq=(raman,savenormalmodes) nosymm
 --------------------------------------------------------
 1/14=-1,18=20,19=15,26=3,38=1/1,3;
 2/9=110,12=2,15=1,17=6,18=5,40=1/2;
 3/5=1,6=6,7=1,11=2,16=1,25=1,30=1,71=1,74=-5,82=47/1,2,3;
 4//1;
 5/5=2,38=5/2;
 6/7=2,8=2,9=2,10=2,28=1/1;
 7/30=1,92=1/1,2,3,16;
 1/14=-1,18=20,19=15/3(2);
 2/9=110,15=1/2;
 99//99;
 2/9=110,15=1/2;
 3/5=1,6=6,7=1,11=2,16=1,25=1,30=1,71=1,74=-5,82=47/1,2,3;
 4/5=5,16=3/1;
 5/5=2,38=5/2;
 7/30=1,92=1/1,2,3,16;
 1/14=-1,18=20,19=15/3(-5);
 2/9=110,15=1/2;
 6/7=2,8=2,9=2,10=2,19=2,28=1/1;
 99/9=1/99;
 -----
 Title
 -----
 Symbolic Z-matrix:
 Charge =  0 Multiplicity = 1
 6                     3.66055  -0.71328   0. 
 6                     3.66055   0.71328   0. 
 6                     2.47952   1.40723   0. 
 6                     1.22385   0.72256   0. 
 6                     2.47952  -1.40723   0. 
 6                     1.22385  -0.72256   0. 
 6                     0.        1.40359   0. 
 6                    -1.22386   0.72256   0. 
 6                     0.       -1.40359   0. 
 6                    -1.22386  -0.72256   0. 
 6                    -2.47952   1.40723   0. 
 6                    -3.66055   0.71328   0. 
 6                    -3.66055  -0.71328   0. 
 6                    -2.47952  -1.40723   0. 
 1                     4.60744  -1.24643   0. 
 1                     4.60744   1.24643   0. 
 1                     2.47641   2.49479   0. 
 1                     2.47641  -2.49479   0. 
 1                     0.        2.49196   0. 
 1                     0.       -2.49196   0. 
 1                    -2.47641   2.49479   0. 
 1                    -4.60744   1.24643   0. 
 1                    -4.60744  -1.24643   0. 
 1                    -2.47641  -2.49479   0. 
 

 GradGradGradGradGradGradGradGradGradGradGradGradGradGradGradGradGradGrad
 Berny optimization.
 Initialization pass.
                           ----------------------------
                           !    Initial Parameters    !
                           ! (Angstroms and Degrees)  !
 --------------------------                            --------------------------
 ! Name  Definition              Value          Derivative Info.                !
 --------------------------------------------------------------------------------
 ! R1    R(1,2)                  1.4266         estimate D2E/DX2                !
 ! R2    R(1,5)                  1.3698         estimate D2E/DX2                !
 ! R3    R(1,15)                 1.0867         estimate D2E/DX2                !
 ! R4    R(2,3)                  1.3698         estimate D2E/DX2                !
 ! R5    R(2,16)                 1.0867         estimate D2E/DX2                !
 ! R6    R(3,4)                  1.4302         estimate D2E/DX2                !
 ! R7    R(3,17)                 1.0876         estimate D2E/DX2                !
 ! R8    R(4,6)                  1.4451         estimate D2E/DX2                !
 ! R9    R(4,7)                  1.4006         estimate D2E/DX2                !
 ! R10   R(5,6)                  1.4302         estimate D2E/DX2                !
 ! R11   R(5,18)                 1.0876         estimate D2E/DX2                !
 ! R12   R(6,9)                  1.4006         estimate D2E/DX2                !
 ! R13   R(7,8)                  1.4006         estimate D2E/DX2                !
 ! R14   R(7,19)                 1.0884         estimate D2E/DX2                !
 ! R15   R(8,10)                 1.4451         estimate D2E/DX2                !
 ! R16   R(8,11)                 1.4302         estimate D2E/DX2                !
 ! R17   R(9,10)                 1.4006         estimate D2E/DX2                !
 ! R18   R(9,20)                 1.0884         estimate D2E/DX2                !
 ! R19   R(10,14)                1.4302         estimate D2E/DX2                !
 ! R20   R(11,12)                1.3698         estimate D2E/DX2                !
 ! R21   R(11,21)                1.0876         estimate D2E/DX2                !
 ! R22   R(12,13)                1.4266         estimate D2E/DX2                !
 ! R23   R(12,22)                1.0867         estimate D2E/DX2                !
 ! R24   R(13,14)                1.3698         estimate D2E/DX2                !
 ! R25   R(13,23)                1.0867         estimate D2E/DX2                !
 ! R26   R(14,24)                1.0876         estimate D2E/DX2                !
 ! A1    A(2,1,5)              120.4376         estimate D2E/DX2                !
 ! A2    A(2,1,15)             119.3819         estimate D2E/DX2                !
 ! A3    A(5,1,15)             120.1805         estimate D2E/DX2                !
 ! A4    A(1,2,3)              120.4376         estimate D2E/DX2                !
 ! A5    A(1,2,16)             119.3819         estimate D2E/DX2                !
 ! A6    A(3,2,16)             120.1805         estimate D2E/DX2                !
 ! A7    A(2,3,4)              120.9604         estimate D2E/DX2                !
 ! A8    A(2,3,17)             120.6014         estimate D2E/DX2                !
 ! A9    A(4,3,17)             118.4382         estimate D2E/DX2                !
 ! A10   A(3,4,6)              118.602          estimate D2E/DX2                !
 ! A11   A(3,4,7)              122.3035         estimate D2E/DX2                !
 ! A12   A(6,4,7)              119.0945         estimate D2E/DX2                !
 ! A13   A(1,5,6)              120.9604         estimate D2E/DX2                !
 ! A14   A(1,5,18)             120.6014         estimate D2E/DX2                !
 ! A15   A(6,5,18)             118.4382         estimate D2E/DX2                !
 ! A16   A(4,6,5)              118.602          estimate D2E/DX2                !
 ! A17   A(4,6,9)              119.0945         estimate D2E/DX2                !
 ! A18   A(5,6,9)              122.3035         estimate D2E/DX2                !
 ! A19   A(4,7,8)              121.811          estimate D2E/DX2                !
 ! A20   A(4,7,19)             119.0945         estimate D2E/DX2                !
 ! A21   A(8,7,19)             119.0945         estimate D2E/DX2                !
 ! A22   A(7,8,10)             119.0945         estimate D2E/DX2                !
 ! A23   A(7,8,11)             122.3034         estimate D2E/DX2                !
 ! A24   A(10,8,11)            118.6021         estimate D2E/DX2                !
 ! A25   A(6,9,10)             121.811          estimate D2E/DX2                !
 ! A26   A(6,9,20)             119.0945         estimate D2E/DX2                !
 ! A27   A(10,9,20)            119.0945         estimate D2E/DX2                !
 ! A28   A(8,10,9)             119.0945         estimate D2E/DX2                !
 ! A29   A(8,10,14)            118.6021         estimate D2E/DX2                !
 ! A30   A(9,10,14)            122.3034         estimate D2E/DX2                !
 ! A31   A(8,11,12)            120.9603         estimate D2E/DX2                !
 ! A32   A(8,11,21)            118.4383         estimate D2E/DX2                !
 ! A33   A(12,11,21)           120.6014         estimate D2E/DX2                !
 ! A34   A(11,12,13)           120.4376         estimate D2E/DX2                !
 ! A35   A(11,12,22)           120.1805         estimate D2E/DX2                !
 ! A36   A(13,12,22)           119.3819         estimate D2E/DX2                !
 ! A37   A(12,13,14)           120.4376         estimate D2E/DX2                !
 ! A38   A(12,13,23)           119.3819         estimate D2E/DX2                !
 ! A39   A(14,13,23)           120.1805         estimate D2E/DX2                !
 ! A40   A(10,14,13)           120.9603         estimate D2E/DX2                !
 ! A41   A(10,14,24)           118.4383         estimate D2E/DX2                !
 ! A42   A(13,14,24)           120.6014         estimate D2E/DX2                !
 ! D1    D(5,1,2,3)              0.0            estimate D2E/DX2                !
 ! D2    D(5,1,2,16)           180.0            estimate D2E/DX2                !
 ! D3    D(15,1,2,3)           180.0            estimate D2E/DX2                !
 ! D4    D(15,1,2,16)            0.0            estimate D2E/DX2                !
 ! D5    D(2,1,5,6)              0.0            estimate D2E/DX2                !
 ! D6    D(2,1,5,18)           180.0            estimate D2E/DX2                !
 ! D7    D(15,1,5,6)           180.0            estimate D2E/DX2                !
 ! D8    D(15,1,5,18)            0.0            estimate D2E/DX2                !
 ! D9    D(1,2,3,4)              0.0            estimate D2E/DX2                !
 ! D10   D(1,2,3,17)           180.0            estimate D2E/DX2                !
 ! D11   D(16,2,3,4)           180.0            estimate D2E/DX2                !
 ! D12   D(16,2,3,17)            0.0            estimate D2E/DX2                !
 ! D13   D(2,3,4,6)              0.0            estimate D2E/DX2                !
 ! D14   D(2,3,4,7)            180.0            estimate D2E/DX2                !
 ! D15   D(17,3,4,6)           180.0            estimate D2E/DX2                !
 ! D16   D(17,3,4,7)             0.0            estimate D2E/DX2                !
 ! D17   D(3,4,6,5)              0.0            estimate D2E/DX2                !
 ! D18   D(3,4,6,9)            180.0            estimate D2E/DX2                !
 ! D19   D(7,4,6,5)            180.0            estimate D2E/DX2                !
 ! D20   D(7,4,6,9)              0.0            estimate D2E/DX2                !
 ! D21   D(3,4,7,8)            180.0            estimate D2E/DX2                !
 ! D22   D(3,4,7,19)             0.0            estimate D2E/DX2                !
 ! D23   D(6,4,7,8)              0.0            estimate D2E/DX2                !
 ! D24   D(6,4,7,19)           180.0            estimate D2E/DX2                !
 ! D25   D(1,5,6,4)              0.0            estimate D2E/DX2                !
 ! D26   D(1,5,6,9)            180.0            estimate D2E/DX2                !
 ! D27   D(18,5,6,4)           180.0            estimate D2E/DX2                !
 ! D28   D(18,5,6,9)             0.0            estimate D2E/DX2                !
 ! D29   D(4,6,9,10)             0.0            estimate D2E/DX2                !
 ! D30   D(4,6,9,20)           180.0            estimate D2E/DX2                !
 ! D31   D(5,6,9,10)           180.0            estimate D2E/DX2                !
 ! D32   D(5,6,9,20)             0.0            estimate D2E/DX2                !
 ! D33   D(4,7,8,10)             0.0            estimate D2E/DX2                !
 ! D34   D(4,7,8,11)           180.0            estimate D2E/DX2                !
 ! D35   D(19,7,8,10)          180.0            estimate D2E/DX2                !
 ! D36   D(19,7,8,11)            0.0            estimate D2E/DX2                !
 ! D37   D(7,8,10,9)             0.0            estimate D2E/DX2                !
 ! D38   D(7,8,10,14)          180.0            estimate D2E/DX2                !
 ! D39   D(11,8,10,9)          180.0            estimate D2E/DX2                !
 ! D40   D(11,8,10,14)           0.0            estimate D2E/DX2                !
 ! D41   D(7,8,11,12)          180.0            estimate D2E/DX2                !
 ! D42   D(7,8,11,21)            0.0            estimate D2E/DX2                !
 ! D43   D(10,8,11,12)           0.0            estimate D2E/DX2                !
 ! D44   D(10,8,11,21)         180.0            estimate D2E/DX2                !
 ! D45   D(6,9,10,8)             0.0            estimate D2E/DX2                !
 ! D46   D(6,9,10,14)          180.0            estimate D2E/DX2                !
 ! D47   D(20,9,10,8)          180.0            estimate D2E/DX2                !
 ! D48   D(20,9,10,14)           0.0            estimate D2E/DX2                !
 ! D49   D(8,10,14,13)           0.0            estimate D2E/DX2                !
 ! D50   D(8,10,14,24)         180.0            estimate D2E/DX2                !
 ! D51   D(9,10,14,13)         180.0            estimate D2E/DX2                !
 ! D52   D(9,10,14,24)           0.0            estimate D2E/DX2                !
 ! D53   D(8,11,12,13)           0.0            estimate D2E/DX2                !
 ! D54   D(8,11,12,22)         180.0            estimate D2E/DX2                !
 ! D55   D(21,11,12,13)        180.0            estimate D2E/DX2                !
 ! D56   D(21,11,12,22)          0.0            estimate D2E/DX2                !
 ! D57   D(11,12,13,14)          0.0            estimate D2E/DX2                !
 ! D58   D(11,12,13,23)        180.0            estimate D2E/DX2                !
 ! D59   D(22,12,13,14)        180.0            estimate D2E/DX2                !
 ! D60   D(22,12,13,23)          0.0            estimate D2E/DX2                !
 ! D61   D(12,13,14,10)          0.0            estimate D2E/DX2                !
 ! D62   D(12,13,14,24)        180.0            estimate D2E/DX2                !
 ! D63   D(23,13,14,10)        180.0            estimate D2E/DX2                !
 ! D64   D(23,13,14,24)          0.0            estimate D2E/DX2                !
 --------------------------------------------------------------------------------
 Trust Radius=3.00D-01 FncErr=1.00D-07 GrdErr=1.00D-06
 Number of steps in this run= 142 maximum allowed number of steps= 144.
 GradGradGradGradGradGradGradGradGradGradGradGradGradGradGradGradGradGrad

                          Input orientation:                          
 ---------------------------------------------------------------------
 Center     Atomic      Atomic             Coordinates (Angstroms)
 Number     Number       Type             X           Y           Z
 ---------------------------------------------------------------------
      1          6           0        3.660546   -0.713278    0.000000
      2          6           0        3.660546    0.713278    0.000000
      3          6           0        2.479518    1.407225    0.000000
      4          6           0        1.223854    0.722557    0.000000
      5          6           0        2.479518   -1.407225    0.000000
      6          6           0        1.223854   -0.722557    0.000000
      7          6           0        0.000000    1.403592    0.000000
      8          6           0       -1.223855    0.722556    0.000000
      9          6           0        0.000000   -1.403592    0.000000
     10          6           0       -1.223855   -0.722556    0.000000
     11          6           0       -2.479517    1.407225    0.000000
     12          6           0       -3.660546    0.713277    0.000000
     13          6           0       -3.660546   -0.713277    0.000000
     14          6           0       -2.479517   -1.407225    0.000000
     15          1           0        4.607435   -1.246428    0.000000
     16          1           0        4.607435    1.246428    0.000000
     17          1           0        2.476408    2.494786    0.000000
     18          1           0        2.476408   -2.494786    0.000000
     19          1           0        0.000000    2.491957    0.000000
     20          1           0        0.000000   -2.491957    0.000000
     21          1           0       -2.476408    2.494785    0.000000
     22          1           0       -4.607435    1.246428    0.000000
     23          1           0       -4.607435   -1.246428    0.000000
     24          1           0       -2.476408   -2.494785    0.000000
 ---------------------------------------------------------------------
                    Distance matrix (angstroms):
                    1          2          3          4          5
     1  C    0.000000
     2  C    1.426556   0.000000
     3  C    2.427212   1.369814   0.000000
     4  C    2.828266   2.436710   1.430197   0.000000
     5  C    1.369814   2.427212   2.814450   2.472380   0.000000
     6  C    2.436710   2.828266   2.472380   1.445114   1.430197
     7  C    4.228562   3.725068   2.479521   1.400581   3.748160
     8  C    5.091070   4.884410   3.766131   2.447709   4.272112
     9  C    3.725068   4.228562   3.748160   2.453228   2.479521
    10  C    4.884410   5.091070   4.272112   2.842469   3.766131
    11  C    6.495915   6.179153   4.959035   3.766129   5.702031
    12  C    7.458783   7.321092   6.179154   4.884409   6.495915
    13  C    7.321092   7.458783   6.495915   5.091069   6.179154
    14  C    6.179153   6.495915   5.702031   4.272111   4.959035
    15  H    1.086668   2.176476   3.401456   3.914783   2.133984
    16  H    2.176476   1.086668   2.133984   3.423896   3.401456
    17  H    3.419628   2.139148   1.087565   2.170181   3.902012
    18  H    2.139148   3.419628   3.902012   3.452562   1.087565
    19  H    4.865504   4.069803   2.706410   2.151417   4.620782
    20  H    4.069803   4.865504   4.620782   3.439610   2.706410
    21  H    6.924873   6.390303   5.073853   4.102771   6.307685
    22  H    8.497056   8.285153   7.088777   5.854773   7.567482
    23  H    8.285153   8.497056   7.567482   6.154741   7.088777
    24  H    6.390303   6.924873   6.307685   4.903389   5.073853
                    6          7          8          9         10
     6  C    0.000000
     7  C    2.453228   0.000000
     8  C    2.842469   1.400582   0.000000
     9  C    1.400581   2.807184   2.453228   0.000000
    10  C    2.447709   2.453228   1.445112   1.400582   0.000000
    11  C    4.272111   2.479520   1.430195   3.748159   2.472378
    12  C    5.091069   3.725068   2.436709   4.228561   2.828264
    13  C    4.884409   4.228561   2.828264   3.725068   2.436709
    14  C    3.766129   3.748159   2.472378   2.479520   1.430195
    15  H    3.423896   5.315173   6.154741   4.610115   5.854775
    16  H    3.914783   4.610115   5.854775   5.315173   6.154741
    17  H    3.452562   2.706160   4.102773   4.618436   4.903390
    18  H    2.170181   4.618436   4.903390   2.706160   4.102773
    19  H    3.439610   1.088365   2.151418   3.895549   3.439610
    20  H    2.151417   3.895549   3.439610   1.088365   2.151418
    21  H    4.903389   2.706159   2.170181   4.618435   3.452560
    22  H    6.154741   4.610115   3.423895   5.315173   3.914781
    23  H    5.854773   5.315173   3.914781   4.610115   3.423895
    24  H    4.102771   4.618435   3.452560   2.706159   2.170181
                   11         12         13         14         15
    11  C    0.000000
    12  C    1.369815   0.000000
    13  C    2.427212   1.426554   0.000000
    14  C    2.814450   2.427212   1.369815   0.000000
    15  H    7.567481   8.497056   8.285153   7.088776   0.000000
    16  H    7.088776   8.285153   8.497056   7.567481   2.492856
    17  H    5.073853   6.390303   6.924873   6.307684   4.305573
    18  H    6.307684   6.924873   6.390303   5.073853   2.469752
    19  H    2.706409   4.069803   4.865503   4.620782   5.933294
    20  H    4.620782   4.865503   4.069803   2.706409   4.772819
    21  H    1.087564   2.139148   3.419626   3.902011   8.011086
    22  H    2.133985   1.086669   2.176475   3.401457   9.546107
    23  H    3.401457   2.176475   1.086669   2.133985   9.214870
    24  H    3.902011   3.419626   2.139148   1.087564   7.192998
                   16         17         18         19         20
    16  H    0.000000
    17  H    2.469752   0.000000
    18  H    4.305573   4.989572   0.000000
    19  H    4.772819   2.476410   5.567783   0.000000
    20  H    5.933294   5.567783   2.476410   4.983914   0.000000
    21  H    7.192998   4.952816   7.030377   2.476410   5.567782
    22  H    9.214870   7.192999   8.011087   4.772819   5.933294
    23  H    9.546107   8.011087   7.192999   5.933294   4.772819
    24  H    8.011086   7.030377   4.952816   5.567782   2.476410
                   21         22         23         24
    21  H    0.000000
    22  H    2.469751   0.000000
    23  H    4.305572   2.492856   0.000000
    24  H    4.989570   4.305572   2.469751   0.000000
 Symmetry turned off by external request.
 Stoichiometry    C14H10
 Framework group  D2H[C2"(HC.CH),SG(C12H8)]
 Deg. of freedom    12
 Full point group                 D2H     NOp   8
 Rotational constants (GHZ):      2.1442836      0.4510376      0.3726523
 Standard basis: 6-31G(d) (6D, 7F)
 Integral buffers will be    131072 words long.
 Raffenetti 2 integral format.
 Two-electron integral symmetry is turned off.
   230 basis functions,   432 primitive gaussians,   230 cartesian basis functions
    47 alpha electrons       47 beta electrons
       nuclear repulsion energy       765.2194072581 Hartrees.
 NAtoms=   24 NActive=   24 NUniq=   24 SFac= 7.50D-01 NAtFMM=   80 NAOKFM=F Big=F
 Standard density basis: Auto (5D, 7F)
   922 Density fitting functions
 One-electron integrals computed using PRISM.
 NBasis=   230 RedAO= T  NBF=   230
 NBsUse=   230 1.00D-06 NBFU=   230
 Harris functional with IExCor=  402 diagonalized for initial guess.
 ExpMin= 1.61D-01 ExpMax= 3.05D+03 ExpMxC= 4.57D+02 IAcc=1 IRadAn=         1 AccDes= 0.00D+00
 HarFok:  IExCor=  402 AccDes= 0.00D+00 IRadAn=         1 IDoV= 1
 ScaDFX=  1.000000  1.000000  1.000000  1.000000
 FoFCou: FMM=F IPFlag=           0 FMFlag=      100000 FMFlg1=           0
         NFxFlg=           0 DoJE=T BraDBF=F KetDBF=T FulRan=T
         Omega=  0.000000  0.000000  1.000000  0.000000  0.000000 ICntrl=     500 IOpCl=  0
         NMat0=    1 NMatS0=    1 NMatT0=    0 NMatD0=    1 NMtDS0=    0 NMtDT0=    0
         I1Cent=           4 NGrid=           0.
 Symmetry not used in FoFCou.
 Requested convergence on RMS density matrix=1.00D-08 within 128 cycles.
 Requested convergence on MAX density matrix=1.00D-06.
 Requested convergence on             energy=1.00D-06.
 No special actions if energy rises.
 Keep R1 ints in memory in canonical form, NReq=359408909.
 Integral accuracy reduced to 1.0D-05 until final iterations.
 Initial convergence to 1.0D-05 achieved.  Increase integral accuracy.
 SCF Done:  E(RB3LYP) =  -539.530523224     A.U. after   13 cycles
             Convg  =    0.8659D-08             -V/T =  2.0099

 **********************************************************************

            Population analysis using the SCF density.

 **********************************************************************

 Alpha  occ. eigenvalues --  -10.19742 -10.19740 -10.19704 -10.19701 -10.19077
 Alpha  occ. eigenvalues --  -10.19077 -10.19042 -10.19042 -10.18979 -10.18979
 Alpha  occ. eigenvalues --  -10.18971 -10.18970 -10.18968 -10.18967  -0.87727
 Alpha  occ. eigenvalues --   -0.84597  -0.79744  -0.78056  -0.74840  -0.73509
 Alpha  occ. eigenvalues --   -0.70018  -0.64175  -0.61259  -0.59746  -0.58841
 Alpha  occ. eigenvalues --   -0.53747  -0.51831  -0.50105  -0.46343  -0.45959
 Alpha  occ. eigenvalues --   -0.44986  -0.44130  -0.42220  -0.41250  -0.40305
 Alpha  occ. eigenvalues --   -0.39591  -0.38637  -0.37649  -0.35790  -0.34481
 Alpha  occ. eigenvalues --   -0.33326  -0.32440  -0.30024  -0.29528  -0.25382
 Alpha  occ. eigenvalues --   -0.23722  -0.19206
 Alpha virt. eigenvalues --   -0.05994  -0.01048   0.00873   0.04561   0.06839
 Alpha virt. eigenvalues --    0.09933   0.10250   0.11082   0.14152   0.14638
 Alpha virt. eigenvalues --    0.15696   0.16810   0.17133   0.17817   0.18120
 Alpha virt. eigenvalues --    0.21415   0.21671   0.23200   0.26802   0.27098
 Alpha virt. eigenvalues --    0.30447   0.30917   0.31051   0.33219   0.33955
 Alpha virt. eigenvalues --    0.34646   0.39320   0.46447   0.48868   0.49626
 Alpha virt. eigenvalues --    0.49704   0.50420   0.50713   0.52913   0.54677
 Alpha virt. eigenvalues --    0.55435   0.55443   0.55561   0.56664   0.57484
 Alpha virt. eigenvalues --    0.57492   0.58364   0.59342   0.60115   0.60429
 Alpha virt. eigenvalues --    0.61653   0.61989   0.62363   0.63011   0.63116
 Alpha virt. eigenvalues --    0.63324   0.63887   0.64123   0.65767   0.68536
 Alpha virt. eigenvalues --    0.70784   0.73777   0.75032   0.80862   0.82345
 Alpha virt. eigenvalues --    0.82559   0.83567   0.83586   0.84075   0.84648
 Alpha virt. eigenvalues --    0.85396   0.85801   0.86070   0.89997   0.90110
 Alpha virt. eigenvalues --    0.92001   0.92877   0.94491   0.95967   0.96451
 Alpha virt. eigenvalues --    0.99153   1.01909   1.03662   1.04061   1.06205
 Alpha virt. eigenvalues --    1.07270   1.11828   1.12986   1.16887   1.17385
 Alpha virt. eigenvalues --    1.19246   1.23162   1.23434   1.24302   1.27049
 Alpha virt. eigenvalues --    1.29321   1.33914   1.37347   1.37610   1.40404
 Alpha virt. eigenvalues --    1.41140   1.44132   1.44324   1.46109   1.47547
 Alpha virt. eigenvalues --    1.48821   1.49921   1.50136   1.50249   1.50761
 Alpha virt. eigenvalues --    1.53694   1.54220   1.54688   1.72912   1.75059
 Alpha virt. eigenvalues --    1.75560   1.78188   1.83450   1.87417   1.88396
 Alpha virt. eigenvalues --    1.89523   1.91032   1.92000   1.92411   1.92427
 Alpha virt. eigenvalues --    1.92900   1.93683   1.95926   1.96871   1.97141
 Alpha virt. eigenvalues --    2.00098   2.01550   2.06960   2.08972   2.12595
 Alpha virt. eigenvalues --    2.13666   2.15287   2.18159   2.21499   2.21851
 Alpha virt. eigenvalues --    2.23036   2.26483   2.27391   2.28025   2.31161
 Alpha virt. eigenvalues --    2.35207   2.35815   2.36631   2.38257   2.38508
 Alpha virt. eigenvalues --    2.40799   2.46081   2.58710   2.60793   2.64607
 Alpha virt. eigenvalues --    2.65632   2.65690   2.66660   2.67280   2.67477
 Alpha virt. eigenvalues --    2.73630   2.73832   2.78456   2.82470   2.85003
 Alpha virt. eigenvalues --    2.85190   2.91697   2.92848   2.93167   3.09029
 Alpha virt. eigenvalues --    3.11174   3.30032   3.43540   3.49308   4.07919
 Alpha virt. eigenvalues --    4.08338   4.10255   4.12246   4.12255   4.13015
 Alpha virt. eigenvalues --    4.17079   4.23344   4.33198   4.35548   4.42811
 Alpha virt. eigenvalues --    4.45163   4.65847   4.85666
          Condensed to atoms (all electrons):
              1          2          3          4          5          6
     1  C    4.907147   0.477325  -0.021748  -0.036948   0.536994  -0.004634
     2  C    0.477325   4.907147   0.536994  -0.004634  -0.021748  -0.036948
     3  C   -0.021748   0.536994   5.078564   0.434090  -0.065568  -0.029679
     4  C   -0.036948  -0.004634   0.434090   4.736414  -0.029679   0.460998
     5  C    0.536994  -0.021748  -0.065568  -0.029679   5.078564   0.434090
     6  C   -0.004634  -0.036948  -0.029679   0.460998   0.434090   4.736414
     7  C   -0.000626   0.007858  -0.085097   0.398119   0.015333  -0.021224
     8  C    0.000030  -0.000296   0.007277   0.011488  -0.000198  -0.033581
     9  C    0.007858  -0.000626   0.015333  -0.021224  -0.085097   0.398119
    10  C   -0.000296   0.000030  -0.000198  -0.033581   0.007277   0.011488
    11  C    0.000000   0.000002  -0.000213   0.007277  -0.000006  -0.000198
    12  C    0.000000   0.000000   0.000002  -0.000296   0.000000   0.000030
    13  C    0.000000   0.000000   0.000000   0.000030   0.000002  -0.000296
    14  C    0.000002   0.000000  -0.000006  -0.000198  -0.000213   0.007277
    15  H    0.356913  -0.041348   0.004173   0.000964  -0.036341   0.002775
    16  H   -0.041348   0.356913  -0.036341   0.002775   0.004173   0.000964
    17  H    0.004543  -0.045529   0.354002  -0.041241   0.000458   0.004548
    18  H   -0.045529   0.004543   0.000458   0.004548   0.354002  -0.041241
    19  H    0.000018   0.000146  -0.007800  -0.041548  -0.000190   0.004276
    20  H    0.000146   0.000018  -0.000190   0.004276  -0.007800  -0.041548
    21  H    0.000000   0.000000  -0.000003   0.000167   0.000000   0.000014
    22  H    0.000000   0.000000   0.000000   0.000003   0.000000  -0.000001
    23  H    0.000000   0.000000   0.000000  -0.000001   0.000000   0.000003
    24  H    0.000000   0.000000   0.000000   0.000014  -0.000003   0.000167
              7          8          9         10         11         12
     1  C   -0.000626   0.000030   0.007858  -0.000296   0.000000   0.000000
     2  C    0.007858  -0.000296  -0.000626   0.000030   0.000002   0.000000
     3  C   -0.085097   0.007277   0.015333  -0.000198  -0.000213   0.000002
     4  C    0.398119   0.011488  -0.021224  -0.033581   0.007277  -0.000296
     5  C    0.015333  -0.000198  -0.085097   0.007277  -0.000006   0.000000
     6  C   -0.021224  -0.033581   0.398119   0.011488  -0.000198   0.000030
     7  C    5.451471   0.398118  -0.112500  -0.021224  -0.085097   0.007858
     8  C    0.398118   4.736413  -0.021224   0.460998   0.434091  -0.004634
     9  C   -0.112500  -0.021224   5.451471   0.398118   0.015333  -0.000626
    10  C   -0.021224   0.460998   0.398118   4.736413  -0.029679  -0.036948
    11  C   -0.085097   0.434091   0.015333  -0.029679   5.078566   0.536993
    12  C    0.007858  -0.004634  -0.000626  -0.036948   0.536993   4.907147
    13  C   -0.000626  -0.036948   0.007858  -0.004634  -0.021748   0.477327
    14  C    0.015333  -0.029679  -0.085097   0.434091  -0.065568  -0.021748
    15  H    0.000010  -0.000001  -0.000201   0.000003   0.000000   0.000000
    16  H   -0.000201   0.000003   0.000010  -0.000001   0.000000   0.000000
    17  H   -0.008354   0.000167  -0.000177   0.000014  -0.000003   0.000000
    18  H   -0.000177   0.000014  -0.008354   0.000167   0.000000   0.000000
    19  H    0.346879  -0.041548   0.000525   0.004276  -0.007800   0.000146
    20  H    0.000525   0.004276   0.346879  -0.041548  -0.000190   0.000018
    21  H   -0.008354  -0.041241  -0.000177   0.004548   0.354002  -0.045529
    22  H   -0.000201   0.002775   0.000010   0.000964  -0.036341   0.356913
    23  H    0.000010   0.000964  -0.000201   0.002775   0.004173  -0.041348
    24  H   -0.000177   0.004548  -0.008354  -0.041241   0.000458   0.004543
             13         14         15         16         17         18
     1  C    0.000000   0.000002   0.356913  -0.041348   0.004543  -0.045529
     2  C    0.000000   0.000000  -0.041348   0.356913  -0.045529   0.004543
     3  C    0.000000  -0.000006   0.004173  -0.036341   0.354002   0.000458
     4  C    0.000030  -0.000198   0.000964   0.002775  -0.041241   0.004548
     5  C    0.000002  -0.000213  -0.036341   0.004173   0.000458   0.354002
     6  C   -0.000296   0.007277   0.002775   0.000964   0.004548  -0.041241
     7  C   -0.000626   0.015333   0.000010  -0.000201  -0.008354  -0.000177
     8  C   -0.036948  -0.029679  -0.000001   0.000003   0.000167   0.000014
     9  C    0.007858  -0.085097  -0.000201   0.000010  -0.000177  -0.008354
    10  C   -0.004634   0.434091   0.000003  -0.000001   0.000014   0.000167
    11  C   -0.021748  -0.065568   0.000000   0.000000  -0.000003   0.000000
    12  C    0.477327  -0.021748   0.000000   0.000000   0.000000   0.000000
    13  C    4.907147   0.536993   0.000000   0.000000   0.000000   0.000000
    14  C    0.536993   5.078566   0.000000   0.000000   0.000000  -0.000003
    15  H    0.000000   0.000000   0.593349  -0.004706  -0.000184  -0.005594
    16  H    0.000000   0.000000  -0.004706   0.593349  -0.005594  -0.000184
    17  H    0.000000   0.000000  -0.000184  -0.005594   0.600865   0.000019
    18  H    0.000000  -0.000003  -0.005594  -0.000184   0.000019   0.600865
    19  H    0.000018  -0.000190   0.000000  -0.000012   0.006629   0.000003
    20  H    0.000146  -0.007800  -0.000012   0.000000   0.000003   0.006629
    21  H    0.004543   0.000458   0.000000   0.000000   0.000002   0.000000
    22  H   -0.041348   0.004173   0.000000   0.000000   0.000000   0.000000
    23  H    0.356913  -0.036341   0.000000   0.000000   0.000000   0.000000
    24  H   -0.045529   0.354002   0.000000   0.000000   0.000000   0.000002
             19         20         21         22         23         24
     1  C    0.000018   0.000146   0.000000   0.000000   0.000000   0.000000
     2  C    0.000146   0.000018   0.000000   0.000000   0.000000   0.000000
     3  C   -0.007800  -0.000190  -0.000003   0.000000   0.000000   0.000000
     4  C   -0.041548   0.004276   0.000167   0.000003  -0.000001   0.000014
     5  C   -0.000190  -0.007800   0.000000   0.000000   0.000000  -0.000003
     6  C    0.004276  -0.041548   0.000014  -0.000001   0.000003   0.000167
     7  C    0.346879   0.000525  -0.008354  -0.000201   0.000010  -0.000177
     8  C   -0.041548   0.004276  -0.041241   0.002775   0.000964   0.004548
     9  C    0.000525   0.346879  -0.000177   0.000010  -0.000201  -0.008354
    10  C    0.004276  -0.041548   0.004548   0.000964   0.002775  -0.041241
    11  C   -0.007800  -0.000190   0.354002  -0.036341   0.004173   0.000458
    12  C    0.000146   0.000018  -0.045529   0.356913  -0.041348   0.004543
    13  C    0.000018   0.000146   0.004543  -0.041348   0.356913  -0.045529
    14  C   -0.000190  -0.007800   0.000458   0.004173  -0.036341   0.354002
    15  H    0.000000  -0.000012   0.000000   0.000000   0.000000   0.000000
    16  H   -0.000012   0.000000   0.000000   0.000000   0.000000   0.000000
    17  H    0.006629   0.000003   0.000002   0.000000   0.000000   0.000000
    18  H    0.000003   0.006629   0.000000   0.000000   0.000000   0.000002
    19  H    0.600513   0.000025   0.006629  -0.000012   0.000000   0.000003
    20  H    0.000025   0.600513   0.000003   0.000000  -0.000012   0.006629
    21  H    0.006629   0.000003   0.600865  -0.005594  -0.000184   0.000019
    22  H   -0.000012   0.000000  -0.005594   0.593349  -0.004706  -0.000184
    23  H    0.000000  -0.000012  -0.000184  -0.004706   0.593349  -0.005594
    24  H    0.000003   0.006629   0.000019  -0.000184  -0.005594   0.600865
 Mulliken atomic charges:
              1
     1  C   -0.139848
     2  C   -0.139848
     3  C   -0.184051
     4  C    0.148189
     5  C   -0.184051
     6  C    0.148189
     7  C   -0.297659
     8  C    0.148189
     9  C   -0.297659
    10  C    0.148189
    11  C   -0.184052
    12  C   -0.139848
    13  C   -0.139848
    14  C   -0.184052
    15  H    0.130199
    16  H    0.130199
    17  H    0.129833
    18  H    0.129833
    19  H    0.129017
    20  H    0.129017
    21  H    0.129833
    22  H    0.130199
    23  H    0.130199
    24  H    0.129833
 Sum of Mulliken atomic charges =   0.00000
 Mulliken charges with hydrogens summed into heavy atoms:
              1
     1  C   -0.009649
     2  C   -0.009649
     3  C   -0.054218
     4  C    0.148189
     5  C   -0.054218
     6  C    0.148189
     7  C   -0.168642
     8  C    0.148189
     9  C   -0.168642
    10  C    0.148189
    11  C   -0.054219
    12  C   -0.009649
    13  C   -0.009649
    14  C   -0.054219
 Sum of Mulliken charges with hydrogens summed into heavy atoms =   0.00000
 Electronic spatial extent (au):  <R**2>=           2860.6088
 Charge=              0.0000 electrons
 Dipole moment (field-independent basis, Debye):
    X=              0.0000    Y=              0.0000    Z=              0.0000  Tot=              0.0000
 Quadrupole moment (field-independent basis, Debye-Ang):
   XX=            -69.7211   YY=            -70.6206   ZZ=            -85.7918
   XY=              0.0000   XZ=              0.0000   YZ=              0.0000
 Traceless Quadrupole moment (field-independent basis, Debye-Ang):
   XX=              5.6567   YY=              4.7572   ZZ=            -10.4139
   XY=              0.0000   XZ=              0.0000   YZ=              0.0000
 Octapole moment (field-independent basis, Debye-Ang**2):
  XXX=              0.0001  YYY=              0.0000  ZZZ=              0.0000  XYY=              0.0000
  XXY=              0.0000  XXZ=              0.0000  XZZ=              0.0000  YZZ=              0.0000
  YYZ=              0.0000  XYZ=              0.0000
 Hexadecapole moment (field-independent basis, Debye-Ang**3):
 XXXX=          -2799.2730 YYYY=           -690.0801 ZZZZ=            -89.0687 XXXY=              0.0000
 XXXZ=              0.0000 YYYX=              0.0000 YYYZ=              0.0000 ZZZX=              0.0000
 ZZZY=              0.0000 XXYY=           -593.6251 XXZZ=           -588.8933 YYZZ=           -153.5838
 XXYZ=              0.0000 YYXZ=              0.0000 ZZXY=              0.0000
 N-N= 7.652194072581D+02 E-N=-2.779352175683D+03  KE= 5.342624338547D+02
 Calling FoFJK, ICntrl=      2127 FMM=F ISym2X=0 I1Cent= 0 IOpClX= 0 NMat=1 NMatS=1 NMatT=0.
 -------------------------------------------------------------------
 Center     Atomic                   Forces (Hartrees/Bohr)
 Number     Number              X              Y              Z
 -------------------------------------------------------------------
      1        6           0.000045505    0.000199698    0.000000000
      2        6           0.000045505   -0.000199698    0.000000000
      3        6          -0.000145366   -0.000051158    0.000000000
      4        6           0.000043277    0.000124405    0.000000000
      5        6          -0.000145366    0.000051158    0.000000000
      6        6           0.000043277   -0.000124405    0.000000000
      7        6          -0.000000230   -0.000119844    0.000000000
      8        6          -0.000042315    0.000125806    0.000000000
      9        6          -0.000000230    0.000119844    0.000000000
     10        6          -0.000042315   -0.000125806    0.000000000
     11        6           0.000143992   -0.000052292    0.000000000
     12        6          -0.000045174   -0.000198079    0.000000000
     13        6          -0.000045174    0.000198079    0.000000000
     14        6           0.000143992    0.000052292    0.000000000
     15        1          -0.000021571   -0.000031055    0.000000000
     16        1          -0.000021571    0.000031055    0.000000000
     17        1           0.000040033   -0.000012993    0.000000000
     18        1           0.000040033    0.000012993    0.000000000
     19        1          -0.000000054   -0.000009649    0.000000000
     20        1          -0.000000054    0.000009649    0.000000000
     21        1          -0.000039920   -0.000012365    0.000000000
     22        1           0.000021824    0.000030858    0.000000000
     23        1           0.000021824   -0.000030858    0.000000000
     24        1          -0.000039920    0.000012365    0.000000000
 -------------------------------------------------------------------
 Cartesian Forces:  Max     0.000199698 RMS     0.000071926

 GradGradGradGradGradGradGradGradGradGradGradGradGradGradGradGradGradGrad
 Berny optimization.
 Internal  Forces:  Max     0.000172290 RMS     0.000034405
 Search for a local minimum.
 Step number   1 out of a maximum of  142
 All quantities printed in internal units (Hartrees-Bohrs-Radians)
 Mixed Optimization -- En-DIIS/RFO-DIIS
 Second derivative matrix not updated -- first step.
     Eigenvalues ---    0.01690   0.01698   0.01741   0.01757   0.01801
     Eigenvalues ---    0.01850   0.01947   0.01948   0.01970   0.01976
     Eigenvalues ---    0.02081   0.02081   0.02081   0.02097   0.02097
     Eigenvalues ---    0.02112   0.02112   0.02182   0.02183   0.02293
     Eigenvalues ---    0.02295   0.16000   0.16000   0.16000   0.16000
     Eigenvalues ---    0.16000   0.16000   0.16000   0.16000   0.16000
     Eigenvalues ---    0.16000   0.22000   0.22000   0.22420   0.22572
     Eigenvalues ---    0.23279   0.23854   0.24466   0.24623   0.25000
     Eigenvalues ---    0.34548   0.35002   0.35002   0.35096   0.35096
     Eigenvalues ---    0.35096   0.35096   0.35200   0.35200   0.35201
     Eigenvalues ---    0.35201   0.37115   0.38838   0.38922   0.40149
     Eigenvalues ---    0.40253   0.41178   0.41178   0.41584   0.44590
     Eigenvalues ---    0.45524   0.45524   0.48980   0.48989   0.50309
     Eigenvalues ---    0.503471000.000001000.000001000.000001000.00000
     Eigenvalues --- 1000.000001000.000001000.000001000.000001000.00000
     Eigenvalues --- 1000.000001000.000001000.000001000.000001000.00000
     Eigenvalues --- 1000.000001000.000001000.000001000.000001000.00000
     Eigenvalues --- 1000.000001000.000001000.000001000.000001000.00000
     Eigenvalues --- 1000.000001000.000001000.000001000.000001000.00000
     Eigenvalues --- 1000.000001000.000001000.000001000.000001000.00000
     Eigenvalues --- 1000.000001000.000001000.000001000.000001000.00000
     Eigenvalues --- 1000.000001000.000001000.000001000.000001000.00000
     Eigenvalues --- 1000.000001000.000001000.000001000.000001000.00000
     Eigenvalues --- 1000.000001000.000001000.000001000.000001000.00000
     Eigenvalues --- 1000.000001000.000001000.000001000.000001000.00000
     Eigenvalues --- 1000.000001000.000001000.000001000.000001000.00000
     Eigenvalues --- 1000.000001000.00000
 RFO step:  Lambda=-4.94654646D-07 EMin= 1.68995119D-02
 Linear search not attempted -- first point.
 Iteration  1 RMS(Cart)=  0.00013954 RMS(Int)=  0.00000002
 Iteration  2 RMS(Cart)=  0.00000002 RMS(Int)=  0.00000000
 Variable       Old X    -DE/DX   Delta X   Delta X   Delta X     New X
                                 (Linear)    (Quad)   (Total)
    R1        2.69580  -0.00017   0.00000  -0.00042  -0.00042   2.69538
    R2        2.58857   0.00002   0.00000   0.00004   0.00004   2.58861
    R3        2.05351   0.00000   0.00000  -0.00001  -0.00001   2.05350
    R4        2.58857   0.00002   0.00000   0.00004   0.00004   2.58861
    R5        2.05351   0.00000   0.00000  -0.00001  -0.00001   2.05350
    R6        2.70268  -0.00010   0.00000  -0.00024  -0.00024   2.70244
    R7        2.05520  -0.00001   0.00000  -0.00004  -0.00004   2.05516
    R8        2.73087   0.00000   0.00000   0.00000   0.00000   2.73087
    R9        2.64671  -0.00006   0.00000  -0.00014  -0.00014   2.64657
   R10        2.70268  -0.00010   0.00000  -0.00024  -0.00024   2.70244
   R11        2.05520  -0.00001   0.00000  -0.00004  -0.00004   2.05516
   R12        2.64671  -0.00006   0.00000  -0.00014  -0.00014   2.64657
   R13        2.64672  -0.00007   0.00000  -0.00014  -0.00014   2.64657
   R14        2.05671  -0.00001   0.00000  -0.00003  -0.00003   2.05668
   R15        2.73087   0.00000   0.00000   0.00000   0.00000   2.73087
   R16        2.70268  -0.00010   0.00000  -0.00024  -0.00024   2.70243
   R17        2.64672  -0.00007   0.00000  -0.00014  -0.00014   2.64657
   R18        2.05671  -0.00001   0.00000  -0.00003  -0.00003   2.05668
   R19        2.70268  -0.00010   0.00000  -0.00024  -0.00024   2.70243
   R20        2.58858   0.00002   0.00000   0.00003   0.00003   2.58861
   R21        2.05520  -0.00001   0.00000  -0.00004  -0.00004   2.05516
   R22        2.69580  -0.00017   0.00000  -0.00042  -0.00042   2.69538
   R23        2.05351   0.00000   0.00000  -0.00001  -0.00001   2.05350
   R24        2.58858   0.00002   0.00000   0.00003   0.00003   2.58861
   R25        2.05351   0.00000   0.00000  -0.00001  -0.00001   2.05350
   R26        2.05520  -0.00001   0.00000  -0.00004  -0.00004   2.05516
    A1        2.10203   0.00000   0.00000  -0.00003  -0.00003   2.10200
    A2        2.08361   0.00004   0.00000   0.00026   0.00026   2.08386
    A3        2.09755  -0.00004   0.00000  -0.00023  -0.00023   2.09732
    A4        2.10203   0.00000   0.00000  -0.00003  -0.00003   2.10200
    A5        2.08361   0.00004   0.00000   0.00026   0.00026   2.08386
    A6        2.09755  -0.00004   0.00000  -0.00023  -0.00023   2.09732
    A7        2.11116   0.00002   0.00000   0.00009   0.00009   2.11125
    A8        2.10489  -0.00005   0.00000  -0.00030  -0.00030   2.10459
    A9        2.06714   0.00003   0.00000   0.00021   0.00021   2.06735
   A10        2.07000  -0.00002   0.00000  -0.00006  -0.00006   2.06994
   A11        2.13460   0.00003   0.00000   0.00013   0.00013   2.13473
   A12        2.07859  -0.00002   0.00000  -0.00007  -0.00007   2.07852
   A13        2.11116   0.00002   0.00000   0.00009   0.00009   2.11125
   A14        2.10489  -0.00005   0.00000  -0.00030  -0.00030   2.10459
   A15        2.06714   0.00003   0.00000   0.00021   0.00021   2.06735
   A16        2.07000  -0.00002   0.00000  -0.00006  -0.00006   2.06994
   A17        2.07859  -0.00002   0.00000  -0.00007  -0.00007   2.07852
   A18        2.13460   0.00003   0.00000   0.00013   0.00013   2.13473
   A19        2.12600   0.00003   0.00000   0.00015   0.00015   2.12615
   A20        2.07859  -0.00002   0.00000  -0.00007  -0.00007   2.07852
   A21        2.07859  -0.00002   0.00000  -0.00007  -0.00007   2.07852
   A22        2.07859  -0.00002   0.00000  -0.00007  -0.00007   2.07852
   A23        2.13460   0.00003   0.00000   0.00013   0.00013   2.13473
   A24        2.07000  -0.00002   0.00000  -0.00006  -0.00006   2.06994
   A25        2.12600   0.00003   0.00000   0.00015   0.00015   2.12615
   A26        2.07859  -0.00002   0.00000  -0.00007  -0.00007   2.07852
   A27        2.07859  -0.00002   0.00000  -0.00007  -0.00007   2.07852
   A28        2.07859  -0.00002   0.00000  -0.00007  -0.00007   2.07852
   A29        2.07000  -0.00002   0.00000  -0.00006  -0.00006   2.06994
   A30        2.13460   0.00003   0.00000   0.00013   0.00013   2.13473
   A31        2.11116   0.00002   0.00000   0.00009   0.00009   2.11125
   A32        2.06714   0.00003   0.00000   0.00021   0.00021   2.06735
   A33        2.10489  -0.00005   0.00000  -0.00030  -0.00030   2.10459
   A34        2.10203   0.00000   0.00000  -0.00003  -0.00003   2.10200
   A35        2.09754  -0.00004   0.00000  -0.00023  -0.00023   2.09732
   A36        2.08361   0.00004   0.00000   0.00026   0.00026   2.08386
   A37        2.10203   0.00000   0.00000  -0.00003  -0.00003   2.10200
   A38        2.08361   0.00004   0.00000   0.00026   0.00026   2.08386
   A39        2.09754  -0.00004   0.00000  -0.00023  -0.00023   2.09732
   A40        2.11116   0.00002   0.00000   0.00009   0.00009   2.11125
   A41        2.06714   0.00003   0.00000   0.00021   0.00021   2.06735
   A42        2.10489  -0.00005   0.00000  -0.00030  -0.00030   2.10459
    D1        0.00000   0.00000   0.00000   0.00000   0.00000   0.00000
    D2        3.14159   0.00000   0.00000   0.00000   0.00000   3.14159
    D3        3.14159   0.00000   0.00000   0.00000   0.00000   3.14159
    D4        0.00000   0.00000   0.00000   0.00000   0.00000   0.00000
    D5        0.00000   0.00000   0.00000   0.00000   0.00000   0.00000
    D6        3.14159   0.00000   0.00000   0.00000   0.00000   3.14159
    D7        3.14159   0.00000   0.00000   0.00000   0.00000   3.14159
    D8        0.00000   0.00000   0.00000   0.00000   0.00000   0.00000
    D9        0.00000   0.00000   0.00000   0.00000   0.00000   0.00000
   D10        3.14159   0.00000   0.00000   0.00000   0.00000   3.14159
   D11        3.14159   0.00000   0.00000   0.00000   0.00000   3.14159
   D12        0.00000   0.00000   0.00000   0.00000   0.00000   0.00000
   D13        0.00000   0.00000   0.00000   0.00000   0.00000   0.00000
   D14        3.14159   0.00000   0.00000   0.00000   0.00000   3.14159
   D15        3.14159   0.00000   0.00000   0.00000   0.00000   3.14159
   D16        0.00000   0.00000   0.00000   0.00000   0.00000   0.00000
   D17        0.00000   0.00000   0.00000   0.00000   0.00000   0.00000
   D18        3.14159   0.00000   0.00000   0.00000   0.00000   3.14159
   D19        3.14159   0.00000   0.00000   0.00000   0.00000   3.14159
   D20        0.00000   0.00000   0.00000   0.00000   0.00000   0.00000
   D21        3.14159   0.00000   0.00000   0.00000   0.00000   3.14159
   D22        0.00000   0.00000   0.00000   0.00000   0.00000   0.00000
   D23        0.00000   0.00000   0.00000   0.00000   0.00000   0.00000
   D24        3.14159   0.00000   0.00000   0.00000   0.00000   3.14159
   D25        0.00000   0.00000   0.00000   0.00000   0.00000   0.00000
   D26        3.14159   0.00000   0.00000   0.00000   0.00000   3.14159
   D27        3.14159   0.00000   0.00000   0.00000   0.00000   3.14159
   D28        0.00000   0.00000   0.00000   0.00000   0.00000   0.00000
   D29        0.00000   0.00000   0.00000   0.00000   0.00000   0.00000
   D30        3.14159   0.00000   0.00000   0.00000   0.00000   3.14159
   D31        3.14159   0.00000   0.00000   0.00000   0.00000   3.14159
   D32        0.00000   0.00000   0.00000   0.00000   0.00000   0.00000
   D33        0.00000   0.00000   0.00000   0.00000   0.00000   0.00000
   D34        3.14159   0.00000   0.00000   0.00000   0.00000   3.14159
   D35        3.14159   0.00000   0.00000   0.00000   0.00000   3.14159
   D36        0.00000   0.00000   0.00000   0.00000   0.00000   0.00000
   D37        0.00000   0.00000   0.00000   0.00000   0.00000   0.00000
   D38        3.14159   0.00000   0.00000   0.00000   0.00000   3.14159
   D39        3.14159   0.00000   0.00000   0.00000   0.00000   3.14159
   D40        0.00000   0.00000   0.00000   0.00000   0.00000   0.00000
   D41        3.14159   0.00000   0.00000   0.00000   0.00000   3.14159
   D42        0.00000   0.00000   0.00000   0.00000   0.00000   0.00000
   D43        0.00000   0.00000   0.00000   0.00000   0.00000   0.00000
   D44        3.14159   0.00000   0.00000   0.00000   0.00000   3.14159
   D45        0.00000   0.00000   0.00000   0.00000   0.00000   0.00000
   D46        3.14159   0.00000   0.00000   0.00000   0.00000   3.14159
   D47        3.14159   0.00000   0.00000   0.00000   0.00000   3.14159
   D48        0.00000   0.00000   0.00000   0.00000   0.00000   0.00000
   D49        0.00000   0.00000   0.00000   0.00000   0.00000   0.00000
   D50        3.14159   0.00000   0.00000   0.00000   0.00000   3.14159
   D51        3.14159   0.00000   0.00000   0.00000   0.00000   3.14159
   D52        0.00000   0.00000   0.00000   0.00000   0.00000   0.00000
   D53        0.00000   0.00000   0.00000   0.00000   0.00000   0.00000
   D54        3.14159   0.00000   0.00000   0.00000   0.00000   3.14159
   D55        3.14159   0.00000   0.00000   0.00000   0.00000   3.14159
   D56        0.00000   0.00000   0.00000   0.00000   0.00000   0.00000
   D57        0.00000   0.00000   0.00000   0.00000   0.00000   0.00000
   D58        3.14159   0.00000   0.00000   0.00000   0.00000   3.14159
   D59        3.14159   0.00000   0.00000   0.00000   0.00000   3.14159
   D60        0.00000   0.00000   0.00000   0.00000   0.00000   0.00000
   D61        0.00000   0.00000   0.00000   0.00000   0.00000   0.00000
   D62        3.14159   0.00000   0.00000   0.00000   0.00000   3.14159
   D63        3.14159   0.00000   0.00000   0.00000   0.00000   3.14159
   D64        0.00000   0.00000   0.00000   0.00000   0.00000   0.00000
         Item               Value     Threshold  Converged?
 Maximum Force            0.000172     0.000450     YES
 RMS     Force            0.000034     0.000300     YES
 Maximum Displacement     0.000392     0.001800     YES
 RMS     Displacement     0.000140     0.001200     YES
 Predicted change in Energy=-2.473274D-07
 Optimization completed.
    -- Stationary point found.
                           ----------------------------
                           !   Optimized Parameters   !
                           ! (Angstroms and Degrees)  !
 --------------------------                            --------------------------
 ! Name  Definition              Value          Derivative Info.                !
 --------------------------------------------------------------------------------
 ! R1    R(1,2)                  1.4266         -DE/DX =   -0.0002              !
 ! R2    R(1,5)                  1.3698         -DE/DX =    0.0                 !
 ! R3    R(1,15)                 1.0867         -DE/DX =    0.0                 !
 ! R4    R(2,3)                  1.3698         -DE/DX =    0.0                 !
 ! R5    R(2,16)                 1.0867         -DE/DX =    0.0                 !
 ! R6    R(3,4)                  1.4302         -DE/DX =   -0.0001              !
 ! R7    R(3,17)                 1.0876         -DE/DX =    0.0                 !
 ! R8    R(4,6)                  1.4451         -DE/DX =    0.0                 !
 ! R9    R(4,7)                  1.4006         -DE/DX =   -0.0001              !
 ! R10   R(5,6)                  1.4302         -DE/DX =   -0.0001              !
 ! R11   R(5,18)                 1.0876         -DE/DX =    0.0                 !
 ! R12   R(6,9)                  1.4006         -DE/DX =   -0.0001              !
 ! R13   R(7,8)                  1.4006         -DE/DX =   -0.0001              !
 ! R14   R(7,19)                 1.0884         -DE/DX =    0.0                 !
 ! R15   R(8,10)                 1.4451         -DE/DX =    0.0                 !
 ! R16   R(8,11)                 1.4302         -DE/DX =   -0.0001              !
 ! R17   R(9,10)                 1.4006         -DE/DX =   -0.0001              !
 ! R18   R(9,20)                 1.0884         -DE/DX =    0.0                 !
 ! R19   R(10,14)                1.4302         -DE/DX =   -0.0001              !
 ! R20   R(11,12)                1.3698         -DE/DX =    0.0                 !
 ! R21   R(11,21)                1.0876         -DE/DX =    0.0                 !
 ! R22   R(12,13)                1.4266         -DE/DX =   -0.0002              !
 ! R23   R(12,22)                1.0867         -DE/DX =    0.0                 !
 ! R24   R(13,14)                1.3698         -DE/DX =    0.0                 !
 ! R25   R(13,23)                1.0867         -DE/DX =    0.0                 !
 ! R26   R(14,24)                1.0876         -DE/DX =    0.0                 !
 ! A1    A(2,1,5)              120.4376         -DE/DX =    0.0                 !
 ! A2    A(2,1,15)             119.3819         -DE/DX =    0.0                 !
 ! A3    A(5,1,15)             120.1805         -DE/DX =    0.0                 !
 ! A4    A(1,2,3)              120.4376         -DE/DX =    0.0                 !
 ! A5    A(1,2,16)             119.3819         -DE/DX =    0.0                 !
 ! A6    A(3,2,16)             120.1805         -DE/DX =    0.0                 !
 ! A7    A(2,3,4)              120.9604         -DE/DX =    0.0                 !
 ! A8    A(2,3,17)             120.6014         -DE/DX =   -0.0001              !
 ! A9    A(4,3,17)             118.4382         -DE/DX =    0.0                 !
 ! A10   A(3,4,6)              118.602          -DE/DX =    0.0                 !
 ! A11   A(3,4,7)              122.3035         -DE/DX =    0.0                 !
 ! A12   A(6,4,7)              119.0945         -DE/DX =    0.0                 !
 ! A13   A(1,5,6)              120.9604         -DE/DX =    0.0                 !
 ! A14   A(1,5,18)             120.6014         -DE/DX =   -0.0001              !
 ! A15   A(6,5,18)             118.4382         -DE/DX =    0.0                 !
 ! A16   A(4,6,5)              118.602          -DE/DX =    0.0                 !
 ! A17   A(4,6,9)              119.0945         -DE/DX =    0.0                 !
 ! A18   A(5,6,9)              122.3035         -DE/DX =    0.0                 !
 ! A19   A(4,7,8)              121.811          -DE/DX =    0.0                 !
 ! A20   A(4,7,19)             119.0945         -DE/DX =    0.0                 !
 ! A21   A(8,7,19)             119.0945         -DE/DX =    0.0                 !
 ! A22   A(7,8,10)             119.0945         -DE/DX =    0.0                 !
 ! A23   A(7,8,11)             122.3034         -DE/DX =    0.0                 !
 ! A24   A(10,8,11)            118.6021         -DE/DX =    0.0                 !
 ! A25   A(6,9,10)             121.811          -DE/DX =    0.0                 !
 ! A26   A(6,9,20)             119.0945         -DE/DX =    0.0                 !
 ! A27   A(10,9,20)            119.0945         -DE/DX =    0.0                 !
 ! A28   A(8,10,9)             119.0945         -DE/DX =    0.0                 !
 ! A29   A(8,10,14)            118.6021         -DE/DX =    0.0                 !
 ! A30   A(9,10,14)            122.3034         -DE/DX =    0.0                 !
 ! A31   A(8,11,12)            120.9603         -DE/DX =    0.0                 !
 ! A32   A(8,11,21)            118.4383         -DE/DX =    0.0                 !
 ! A33   A(12,11,21)           120.6014         -DE/DX =   -0.0001              !
 ! A34   A(11,12,13)           120.4376         -DE/DX =    0.0                 !
 ! A35   A(11,12,22)           120.1805         -DE/DX =    0.0                 !
 ! A36   A(13,12,22)           119.3819         -DE/DX =    0.0                 !
 ! A37   A(12,13,14)           120.4376         -DE/DX =    0.0                 !
 ! A38   A(12,13,23)           119.3819         -DE/DX =    0.0                 !
 ! A39   A(14,13,23)           120.1805         -DE/DX =    0.0                 !
 ! A40   A(10,14,13)           120.9603         -DE/DX =    0.0                 !
 ! A41   A(10,14,24)           118.4383         -DE/DX =    0.0                 !
 ! A42   A(13,14,24)           120.6014         -DE/DX =   -0.0001              !
 ! D1    D(5,1,2,3)              0.0            -DE/DX =    0.0                 !
 ! D2    D(5,1,2,16)           180.0            -DE/DX =    0.0                 !
 ! D3    D(15,1,2,3)           180.0            -DE/DX =    0.0                 !
 ! D4    D(15,1,2,16)            0.0            -DE/DX =    0.0                 !
 ! D5    D(2,1,5,6)              0.0            -DE/DX =    0.0                 !
 ! D6    D(2,1,5,18)           180.0            -DE/DX =    0.0                 !
 ! D7    D(15,1,5,6)           180.0            -DE/DX =    0.0                 !
 ! D8    D(15,1,5,18)            0.0            -DE/DX =    0.0                 !
 ! D9    D(1,2,3,4)              0.0            -DE/DX =    0.0                 !
 ! D10   D(1,2,3,17)           180.0            -DE/DX =    0.0                 !
 ! D11   D(16,2,3,4)           180.0            -DE/DX =    0.0                 !
 ! D12   D(16,2,3,17)            0.0            -DE/DX =    0.0                 !
 ! D13   D(2,3,4,6)              0.0            -DE/DX =    0.0                 !
 ! D14   D(2,3,4,7)            180.0            -DE/DX =    0.0                 !
 ! D15   D(17,3,4,6)           180.0            -DE/DX =    0.0                 !
 ! D16   D(17,3,4,7)             0.0            -DE/DX =    0.0                 !
 ! D17   D(3,4,6,5)              0.0            -DE/DX =    0.0                 !
 ! D18   D(3,4,6,9)            180.0            -DE/DX =    0.0                 !
 ! D19   D(7,4,6,5)            180.0            -DE/DX =    0.0                 !
 ! D20   D(7,4,6,9)              0.0            -DE/DX =    0.0                 !
 ! D21   D(3,4,7,8)            180.0            -DE/DX =    0.0                 !
 ! D22   D(3,4,7,19)             0.0            -DE/DX =    0.0                 !
 ! D23   D(6,4,7,8)              0.0            -DE/DX =    0.0                 !
 ! D24   D(6,4,7,19)           180.0            -DE/DX =    0.0                 !
 ! D25   D(1,5,6,4)              0.0            -DE/DX =    0.0                 !
 ! D26   D(1,5,6,9)            180.0            -DE/DX =    0.0                 !
 ! D27   D(18,5,6,4)           180.0            -DE/DX =    0.0                 !
 ! D28   D(18,5,6,9)             0.0            -DE/DX =    0.0                 !
 ! D29   D(4,6,9,10)             0.0            -DE/DX =    0.0                 !
 ! D30   D(4,6,9,20)           180.0            -DE/DX =    0.0                 !
 ! D31   D(5,6,9,10)           180.0            -DE/DX =    0.0                 !
 ! D32   D(5,6,9,20)             0.0            -DE/DX =    0.0                 !
 ! D33   D(4,7,8,10)             0.0            -DE/DX =    0.0                 !
 ! D34   D(4,7,8,11)           180.0            -DE/DX =    0.0                 !
 ! D35   D(19,7,8,10)          180.0            -DE/DX =    0.0                 !
 ! D36   D(19,7,8,11)            0.0            -DE/DX =    0.0                 !
 ! D37   D(7,8,10,9)             0.0            -DE/DX =    0.0                 !
 ! D38   D(7,8,10,14)          180.0            -DE/DX =    0.0                 !
 ! D39   D(11,8,10,9)          180.0            -DE/DX =    0.0                 !
 ! D40   D(11,8,10,14)           0.0            -DE/DX =    0.0                 !
 ! D41   D(7,8,11,12)          180.0            -DE/DX =    0.0                 !
 ! D42   D(7,8,11,21)            0.0            -DE/DX =    0.0                 !
 ! D43   D(10,8,11,12)           0.0            -DE/DX =    0.0                 !
 ! D44   D(10,8,11,21)         180.0            -DE/DX =    0.0                 !
 ! D45   D(6,9,10,8)             0.0            -DE/DX =    0.0                 !
 ! D46   D(6,9,10,14)          180.0            -DE/DX =    0.0                 !
 ! D47   D(20,9,10,8)          180.0            -DE/DX =    0.0                 !
 ! D48   D(20,9,10,14)           0.0            -DE/DX =    0.0                 !
 ! D49   D(8,10,14,13)           0.0            -DE/DX =    0.0                 !
 ! D50   D(8,10,14,24)         180.0            -DE/DX =    0.0                 !
 ! D51   D(9,10,14,13)         180.0            -DE/DX =    0.0                 !
 ! D52   D(9,10,14,24)           0.0            -DE/DX =    0.0                 !
 ! D53   D(8,11,12,13)           0.0            -DE/DX =    0.0                 !
 ! D54   D(8,11,12,22)         180.0            -DE/DX =    0.0                 !
 ! D55   D(21,11,12,13)        180.0            -DE/DX =    0.0                 !
 ! D56   D(21,11,12,22)          0.0            -DE/DX =    0.0                 !
 ! D57   D(11,12,13,14)          0.0            -DE/DX =    0.0                 !
 ! D58   D(11,12,13,23)        180.0            -DE/DX =    0.0                 !
 ! D59   D(22,12,13,14)        180.0            -DE/DX =    0.0                 !
 ! D60   D(22,12,13,23)          0.0            -DE/DX =    0.0                 !
 ! D61   D(12,13,14,10)          0.0            -DE/DX =    0.0                 !
 ! D62   D(12,13,14,24)        180.0            -DE/DX =    0.0                 !
 ! D63   D(23,13,14,10)        180.0            -DE/DX =    0.0                 !
 ! D64   D(23,13,14,24)          0.0            -DE/DX =    0.0                 !
 --------------------------------------------------------------------------------
 GradGradGradGradGradGradGradGradGradGradGradGradGradGradGradGradGradGrad

                          Input orientation:                          
 ---------------------------------------------------------------------
 Center     Atomic      Atomic             Coordinates (Angstroms)
 Number     Number       Type             X           Y           Z
 ---------------------------------------------------------------------
      1          6           0        3.660546   -0.713278    0.000000
      2          6           0        3.660546    0.713278    0.000000
      3          6           0        2.479518    1.407225    0.000000
      4          6           0        1.223854    0.722557    0.000000
      5          6           0        2.479518   -1.407225    0.000000
      6          6           0        1.223854   -0.722557    0.000000
      7          6           0        0.000000    1.403592    0.000000
      8          6           0       -1.223855    0.722556    0.000000
      9          6           0        0.000000   -1.403592    0.000000
     10          6           0       -1.223855   -0.722556    0.000000
     11          6           0       -2.479517    1.407225    0.000000
     12          6           0       -3.660546    0.713277    0.000000
     13          6           0       -3.660546   -0.713277    0.000000
     14          6           0       -2.479517   -1.407225    0.000000
     15          1           0        4.607435   -1.246428    0.000000
     16          1           0        4.607435    1.246428    0.000000
     17          1           0        2.476408    2.494786    0.000000
     18          1           0        2.476408   -2.494786    0.000000
     19          1           0        0.000000    2.491957    0.000000
     20          1           0        0.000000   -2.491957    0.000000
     21          1           0       -2.476408    2.494785    0.000000
     22          1           0       -4.607435    1.246428    0.000000
     23          1           0       -4.607435   -1.246428    0.000000
     24          1           0       -2.476408   -2.494785    0.000000
 ---------------------------------------------------------------------
                    Distance matrix (angstroms):
                    1          2          3          4          5
     1  C    0.000000
     2  C    1.426556   0.000000
     3  C    2.427212   1.369814   0.000000
     4  C    2.828266   2.436710   1.430197   0.000000
     5  C    1.369814   2.427212   2.814450   2.472380   0.000000
     6  C    2.436710   2.828266   2.472380   1.445114   1.430197
     7  C    4.228562   3.725068   2.479521   1.400581   3.748160
     8  C    5.091070   4.884410   3.766131   2.447709   4.272112
     9  C    3.725068   4.228562   3.748160   2.453228   2.479521
    10  C    4.884410   5.091070   4.272112   2.842469   3.766131
    11  C    6.495915   6.179153   4.959035   3.766129   5.702031
    12  C    7.458783   7.321092   6.179154   4.884409   6.495915
    13  C    7.321092   7.458783   6.495915   5.091069   6.179154
    14  C    6.179153   6.495915   5.702031   4.272111   4.959035
    15  H    1.086668   2.176476   3.401456   3.914783   2.133984
    16  H    2.176476   1.086668   2.133984   3.423896   3.401456
    17  H    3.419628   2.139148   1.087565   2.170181   3.902012
    18  H    2.139148   3.419628   3.902012   3.452562   1.087565
    19  H    4.865504   4.069803   2.706410   2.151417   4.620782
    20  H    4.069803   4.865504   4.620782   3.439610   2.706410
    21  H    6.924873   6.390303   5.073853   4.102771   6.307685
    22  H    8.497056   8.285153   7.088777   5.854773   7.567482
    23  H    8.285153   8.497056   7.567482   6.154741   7.088777
    24  H    6.390303   6.924873   6.307685   4.903389   5.073853
                    6          7          8          9         10
     6  C    0.000000
     7  C    2.453228   0.000000
     8  C    2.842469   1.400582   0.000000
     9  C    1.400581   2.807184   2.453228   0.000000
    10  C    2.447709   2.453228   1.445112   1.400582   0.000000
    11  C    4.272111   2.479520   1.430195   3.748159   2.472378
    12  C    5.091069   3.725068   2.436709   4.228561   2.828264
    13  C    4.884409   4.228561   2.828264   3.725068   2.436709
    14  C    3.766129   3.748159   2.472378   2.479520   1.430195
    15  H    3.423896   5.315173   6.154741   4.610115   5.854775
    16  H    3.914783   4.610115   5.854775   5.315173   6.154741
    17  H    3.452562   2.706160   4.102773   4.618436   4.903390
    18  H    2.170181   4.618436   4.903390   2.706160   4.102773
    19  H    3.439610   1.088365   2.151418   3.895549   3.439610
    20  H    2.151417   3.895549   3.439610   1.088365   2.151418
    21  H    4.903389   2.706159   2.170181   4.618435   3.452560
    22  H    6.154741   4.610115   3.423895   5.315173   3.914781
    23  H    5.854773   5.315173   3.914781   4.610115   3.423895
    24  H    4.102771   4.618435   3.452560   2.706159   2.170181
                   11         12         13         14         15
    11  C    0.000000
    12  C    1.369815   0.000000
    13  C    2.427212   1.426554   0.000000
    14  C    2.814450   2.427212   1.369815   0.000000
    15  H    7.567481   8.497056   8.285153   7.088776   0.000000
    16  H    7.088776   8.285153   8.497056   7.567481   2.492856
    17  H    5.073853   6.390303   6.924873   6.307684   4.305573
    18  H    6.307684   6.924873   6.390303   5.073853   2.469752
    19  H    2.706409   4.069803   4.865503   4.620782   5.933294
    20  H    4.620782   4.865503   4.069803   2.706409   4.772819
    21  H    1.087564   2.139148   3.419626   3.902011   8.011086
    22  H    2.133985   1.086669   2.176475   3.401457   9.546107
    23  H    3.401457   2.176475   1.086669   2.133985   9.214870
    24  H    3.902011   3.419626   2.139148   1.087564   7.192998
                   16         17         18         19         20
    16  H    0.000000
    17  H    2.469752   0.000000
    18  H    4.305573   4.989572   0.000000
    19  H    4.772819   2.476410   5.567783   0.000000
    20  H    5.933294   5.567783   2.476410   4.983914   0.000000
    21  H    7.192998   4.952816   7.030377   2.476410   5.567782
    22  H    9.214870   7.192999   8.011087   4.772819   5.933294
    23  H    9.546107   8.011087   7.192999   5.933294   4.772819
    24  H    8.011086   7.030377   4.952816   5.567782   2.476410
                   21         22         23         24
    21  H    0.000000
    22  H    2.469751   0.000000
    23  H    4.305572   2.492856   0.000000
    24  H    4.989570   4.305572   2.469751   0.000000
 Symmetry turned off by external request.
 Stoichiometry    C14H10
 Framework group  C2V[SGV(C14H10)]
 Deg. of freedom    23
 Full point group                 C2V     NOp   4
 Rotational constants (GHZ):      2.1442836      0.4510376      0.3726523
 1\1\GINC-CLODOMIRA\FOpt\RB3LYP\6-31G(d)\C14H10\DIEGOA\08-Oct-2019\0\\#
  b3lyp/6-31G(d) opt freq=(raman,savenormalmodes) nosymm\\Title\\0,1\C,
 3.660546,-0.713278,0.\C,3.660546,0.713278,0.\C,2.479518,1.407225,0.\C,
 1.223854,0.722557,0.\C,2.479518,-1.407225,0.\C,1.223854,-0.722557,0.\C
 ,0.,1.403592,0.\C,-1.223855,0.722556,0.\C,0.,-1.403592,0.\C,-1.223855,
 -0.722556,0.\C,-2.479517,1.407225,0.\C,-3.660546,0.713277,0.\C,-3.6605
 46,-0.713277,0.\C,-2.479517,-1.407225,0.\H,4.607435,-1.246428,0.\H,4.6
 07435,1.246428,0.\H,2.476408,2.494786,0.\H,2.476408,-2.494786,0.\H,0.,
 2.491957,0.\H,0.,-2.491957,0.\H,-2.476408,2.494785,0.\H,-4.607435,1.24
 6428,0.\H,-4.607435,-1.246428,0.\H,-2.476408,-2.494785,0.\\Version=EM6
 4L-G09RevA.01\HF=-539.5305232\RMSD=8.659e-09\RMSF=7.193e-05\Dipole=-0.
 0000003,0.,0.\Quadrupole=4.2056388,3.5368688,-7.7425076,0.,0.,0.\PG=C0
 2V [SGV(C14H10)]\\@


 AND THIS OUR LIFE, EXEMPT FROM PUBLIC HAUNT,
 FINDS TONGUES IN TREES, BOOKS IN THE RUNNING BROOKS,
 SERMONS IN STONES, AND GOOD IN EVERYTHING.
 I WOULD NOT CHANGE IT. -- W. SHAKESPEARE
 AS YOU LIKE IT, ACT II, SCENE 1.
 Job cpu time:  0 days  0 hours  2 minutes 17.6 seconds.
 File lengths (MBytes):  RWF=     28 Int=      0 D2E=      0 Chk=      5 Scr=      1
 Normal termination of Gaussian 09 at Tue Oct  8 20:54:27 2019.
 Link1:  Proceeding to internal job step number  2.
 --------------------------------------------------------------------
 #N Geom=AllCheck Guess=TCheck SCRF=Check GenChk RB3LYP/6-31G(d) Freq
 --------------------------------------------------------------------
 1/10=4,29=7,30=1,38=1,40=1/1,3;
 2/12=2,15=1,40=1/2;
 3/5=1,6=6,7=1,11=2,14=-4,16=1,25=1,30=1,70=2,71=2,74=-5,82=47,116=1/1,2,3;
 4/5=101/1;
 5/5=2,98=1/2;
 8/6=4,10=90,11=11/1;
 10/13=10,15=4,31=1/2;
 11/6=3,8=1,9=11,15=111,16=1,31=1/1,2,10;
 10/6=1,31=1/2;
 6/7=2,8=2,9=2,10=2,18=1,28=1/1;
 7/8=1,10=1,25=1,30=1,92=1/1,2,3,16;
 1/10=4,30=1/3;
 99//99;
 -----
 Title
 -----
 Redundant internal coordinates taken from checkpoint file:
 freq.chk
 Charge =  0 Multiplicity = 1
 C,0,3.660546,-0.713278,0.
 C,0,3.660546,0.713278,0.
 C,0,2.479518,1.407225,0.
 C,0,1.223854,0.722557,0.
 C,0,2.479518,-1.407225,0.
 C,0,1.223854,-0.722557,0.
 C,0,0.,1.403592,0.
 C,0,-1.223855,0.722556,0.
 C,0,0.,-1.403592,0.
 C,0,-1.223855,-0.722556,0.
 C,0,-2.479517,1.407225,0.
 C,0,-3.660546,0.713277,0.
 C,0,-3.660546,-0.713277,0.
 C,0,-2.479517,-1.407225,0.
 H,0,4.607435,-1.246428,0.
 H,0,4.607435,1.246428,0.
 H,0,2.476408,2.494786,0.
 H,0,2.476408,-2.494786,0.
 H,0,0.,2.491957,0.
 H,0,0.,-2.491957,0.
 H,0,-2.476408,2.494785,0.
 H,0,-4.607435,1.246428,0.
 H,0,-4.607435,-1.246428,0.
 H,0,-2.476408,-2.494785,0.
 Recover connectivity data from disk.

 GradGradGradGradGradGradGradGradGradGradGradGradGradGradGradGradGradGrad
 Berny optimization.
 Initialization pass.
                           ----------------------------
                           !    Initial Parameters    !
                           ! (Angstroms and Degrees)  !
 --------------------------                            --------------------------
 ! Name  Definition              Value          Derivative Info.                !
 --------------------------------------------------------------------------------
 ! R1    R(1,2)                  1.4266         calculate D2E/DX2 analytically  !
 ! R2    R(1,5)                  1.3698         calculate D2E/DX2 analytically  !
 ! R3    R(1,15)                 1.0867         calculate D2E/DX2 analytically  !
 ! R4    R(2,3)                  1.3698         calculate D2E/DX2 analytically  !
 ! R5    R(2,16)                 1.0867         calculate D2E/DX2 analytically  !
 ! R6    R(3,4)                  1.4302         calculate D2E/DX2 analytically  !
 ! R7    R(3,17)                 1.0876         calculate D2E/DX2 analytically  !
 ! R8    R(4,6)                  1.4451         calculate D2E/DX2 analytically  !
 ! R9    R(4,7)                  1.4006         calculate D2E/DX2 analytically  !
 ! R10   R(5,6)                  1.4302         calculate D2E/DX2 analytically  !
 ! R11   R(5,18)                 1.0876         calculate D2E/DX2 analytically  !
 ! R12   R(6,9)                  1.4006         calculate D2E/DX2 analytically  !
 ! R13   R(7,8)                  1.4006         calculate D2E/DX2 analytically  !
 ! R14   R(7,19)                 1.0884         calculate D2E/DX2 analytically  !
 ! R15   R(8,10)                 1.4451         calculate D2E/DX2 analytically  !
 ! R16   R(8,11)                 1.4302         calculate D2E/DX2 analytically  !
 ! R17   R(9,10)                 1.4006         calculate D2E/DX2 analytically  !
 ! R18   R(9,20)                 1.0884         calculate D2E/DX2 analytically  !
 ! R19   R(10,14)                1.4302         calculate D2E/DX2 analytically  !
 ! R20   R(11,12)                1.3698         calculate D2E/DX2 analytically  !
 ! R21   R(11,21)                1.0876         calculate D2E/DX2 analytically  !
 ! R22   R(12,13)                1.4266         calculate D2E/DX2 analytically  !
 ! R23   R(12,22)                1.0867         calculate D2E/DX2 analytically  !
 ! R24   R(13,14)                1.3698         calculate D2E/DX2 analytically  !
 ! R25   R(13,23)                1.0867         calculate D2E/DX2 analytically  !
 ! R26   R(14,24)                1.0876         calculate D2E/DX2 analytically  !
 ! A1    A(2,1,5)              120.4376         calculate D2E/DX2 analytically  !
 ! A2    A(2,1,15)             119.3819         calculate D2E/DX2 analytically  !
 ! A3    A(5,1,15)             120.1805         calculate D2E/DX2 analytically  !
 ! A4    A(1,2,3)              120.4376         calculate D2E/DX2 analytically  !
 ! A5    A(1,2,16)             119.3819         calculate D2E/DX2 analytically  !
 ! A6    A(3,2,16)             120.1805         calculate D2E/DX2 analytically  !
 ! A7    A(2,3,4)              120.9604         calculate D2E/DX2 analytically  !
 ! A8    A(2,3,17)             120.6014         calculate D2E/DX2 analytically  !
 ! A9    A(4,3,17)             118.4382         calculate D2E/DX2 analytically  !
 ! A10   A(3,4,6)              118.602          calculate D2E/DX2 analytically  !
 ! A11   A(3,4,7)              122.3035         calculate D2E/DX2 analytically  !
 ! A12   A(6,4,7)              119.0945         calculate D2E/DX2 analytically  !
 ! A13   A(1,5,6)              120.9604         calculate D2E/DX2 analytically  !
 ! A14   A(1,5,18)             120.6014         calculate D2E/DX2 analytically  !
 ! A15   A(6,5,18)             118.4382         calculate D2E/DX2 analytically  !
 ! A16   A(4,6,5)              118.602          calculate D2E/DX2 analytically  !
 ! A17   A(4,6,9)              119.0945         calculate D2E/DX2 analytically  !
[...]
 915321,0.00631304,0.,-0.07270687,0.01345793,0.,0.01012222,-0.00116253,
 0.,-0.02087694,-0.02259486,0.,-0.25542134,-0.11276928,0.,0.70342011,-0
 .00551637,-0.00976898,0.,-0.00540867,0.01114930,0.,0.01643205,-0.00158
 544,0.,-0.01345780,0.03223043,0.,0.01119097,-0.00125225,0.,-0.02259480
 ,-0.01718122,0.,-0.08226411,-0.18005277,0.,0.01658271,0.62682678,0.,0.
 ,0.00021231,0.,0.,0.00037541,0.,0.,0.00730775,0.,0.,0.00404760,0.,0.,-
 0.00069566,0.,0.,-0.00499837,0.,0.,-0.06195973,0.,0.,0.15842001,0.0145
 9252,0.02793813,0.,0.00838324,-0.02030076,0.,-0.01534725,0.00170397,0.
 ,0.03485113,-0.04733643,0.,-0.07262752,-0.00997881,0.,-0.25542376,-0.0
 8226526,0.,-0.05224660,0.00000002,0.,0.03485111,0.04733632,0.,0.680738
 34,0.00730180,0.00037857,0.,0.00088990,-0.00321732,0.,0.00124309,-0.00
 522026,0.,-0.02770009,-0.02354060,0.,0.00740298,0.01658591,0.,-0.11277
 054,-0.18005335,0.,-0.00000002,-0.00221614,0.,0.02770015,-0.02354055,0
 .,0.00000127,0.72263139,0.,0.,0.00464746,0.,0.,-0.00031200,0.,0.,0.003
 78717,0.,0.,0.00637696,0.,0.,0.00413395,0.,0.,-0.06195954,0.,0.,-0.003
 66374,0.,0.,0.00637694,0.,0.,0.12997462,-0.00898848,-0.01405149,0.,-0.
 00599469,0.01238121,0.,0.01012222,0.00116253,0.,-0.02087694,0.02259486
 ,0.,0.01915321,-0.00631304,0.,-0.07270687,-0.01345793,0.,0.03485111,-0
 .02770015,0.,-0.13751344,-0.00818153,0.,-0.25542134,0.11276928,0.,0.70
 342011,0.00540867,0.01114930,0.,0.00551637,-0.00976898,0.,-0.01119097,
 -0.00125225,0.,0.02259480,-0.01718122,0.,-0.01643205,-0.00158544,0.,0.
 01345780,0.03223043,0.,-0.04733632,-0.02354055,0.,0.00818153,-0.242472
 53,0.,0.08226411,-0.18005277,0.,-0.01658271,0.62682678,0.,0.,0.0003754
 1,0.,0.,0.00021231,0.,0.,-0.00069566,0.,0.,-0.00499837,0.,0.,0.0073077
 5,0.,0.,0.00404760,0.,0.,0.00637694,0.,0.,-0.07241446,0.,0.,-0.0619597
 3,0.,0.,0.15842001,0.00299950,0.00680455,0.,0.00422925,-0.00804335,0.,
 -0.01060625,-0.00048096,0.,0.01915324,-0.01643217,0.,-0.00537919,0.000
 51550,0.,0.01012226,0.01119106,0.,-0.07262766,0.00740304,0.,-0.2138507
 6,0.07170457,0.,-0.01534729,-0.00124310,0.,0.03105744,0.03309528,0.,0.
 68743794,-0.00033517,-0.00060940,0.,-0.00081867,0.00050980,0.,0.000480
 98,0.00149645,0.,-0.00631309,-0.00158542,0.,0.00051551,-0.00013647,0.,
 -0.00116254,-0.00125227,0.,-0.00997875,0.01658593,0.,0.09075374,-0.165
 48395,0.,-0.00170396,-0.00522026,0.,0.02941969,-0.01916439,0.,0.064706
 51,0.73597871,0.,0.,0.00018700,0.,0.,-0.00065968,0.,0.,0.00063510,0.,0
 .,0.00730769,0.,0.,-0.00062639,0.,0.,-0.00069566,0.,0.,0.00413398,0.,0
 .,-0.06543527,0.,0.,0.00378721,0.,0.,0.00600861,0.,0.,0.13000682,-0.00
 187988,-0.00315397,0.,-0.00180609,0.00391034,0.,0.00422925,0.00081866,
 0.,-0.00898849,0.00540872,0.,0.00299950,-0.00033517,0.,-0.00599470,-0.
 00551640,0.,0.01459251,0.00730178,0.,-0.06238448,-0.00104130,0.,0.0083
 8326,-0.00088991,0.,-0.01581730,-0.01160430,0.,-0.33988166,-0.15043794
 ,0.,0.77110973,-0.00315397,-0.00682870,0.,-0.00391033,0.00663163,0.,0.
 00804334,0.00050980,0.,-0.01405152,0.01114938,0.,0.00680455,-0.0006093
 9,0.,-0.01238125,-0.00976907,0.,0.02793817,0.00037857,0.,-0.03033308,0
 .03325122,0.,0.02030081,-0.00321731,0.,-0.03387531,-0.01672397,0.,-0.0
 9537543,-0.19974370,0.,0.00136544,0.64833922,0.,0.,-0.00014620,0.,0.,0
 .00009137,0.,0.,-0.00065968,0.,0.,0.00037542,0.,0.,0.00018700,0.,0.,0.
 00021231,0.,0.,0.00464750,0.,0.,0.00625450,0.,0.,-0.00031201,0.,0.,-0.
 00769575,0.,0.,-0.05647198,0.,0.,0.12718350,-0.00180609,-0.00391034,0.
 ,-0.00187988,0.00315397,0.,0.00299950,0.00033517,0.,-0.00599470,0.0055
 1640,0.,0.00422925,-0.00081866,0.,-0.00898849,-0.00540872,0.,0.0083832
 6,0.00088991,0.,-0.01581730,0.01160430,0.,0.01459251,-0.00730177,0.,-0
 .06238448,0.00104130,0.,0.02704263,-0.02736104,0.,-0.12396377,-0.03081
 645,0.,0.77110973,0.00391033,0.00663163,0.,0.00315397,-0.00682870,0.,-
 0.00680455,-0.00060939,0.,0.01238125,-0.00976907,0.,-0.00804334,0.0005
 0980,0.,0.01405152,0.01114938,0.,-0.02030081,-0.00321731,0.,0.03387531
 ,-0.01672397,0.,-0.02793817,0.00037857,0.,0.03033308,0.03325122,0.,-0.
 06553704,-0.03206949,0.,0.03081645,-0.28156728,0.,-0.00136544,0.648339
 22,0.,0.,0.00009137,0.,0.,-0.00014620,0.,0.,0.00018700,0.,0.,0.0002123
 1,0.,0.,-0.00065968,0.,0.,0.00037542,0.,0.,-0.00031201,0.,0.,-0.007695
 75,0.,0.,0.00464750,0.,0.,0.00625450,0.,0.,0.00801217,0.,0.,-0.0597749
 1,0.,0.,0.12718350,0.00422925,0.00804335,0.,0.00299950,-0.00680455,0.,
 -0.00537919,-0.00051550,0.,0.01012226,-0.01119106,0.,-0.01060625,0.000
 48096,0.,0.01915324,0.01643217,0.,-0.01534729,0.00124310,0.,0.03105744
 ,-0.03309528,0.,-0.07262766,-0.00740304,0.,-0.21385076,-0.07170457,0.,
 -0.04677966,-0.00447748,0.,0.02704263,0.06553704,0.,-0.33988166,0.0953
 7543,0.,0.68743794,0.00081867,0.00050980,0.,0.00033517,-0.00060940,0.,
 -0.00051551,-0.00013647,0.,0.00116254,-0.00125227,0.,-0.00048098,0.001
 49645,0.,0.00631309,-0.00158542,0.,0.00170396,-0.00522026,0.,-0.029419
 69,-0.01916439,0.,0.00997875,0.01658593,0.,-0.09075374,-0.16548395,0.,
 0.00447748,-0.00064490,0.,0.02736104,-0.03206949,0.,0.15043794,-0.1997
 4370,0.,-0.06470651,0.73597871,0.,0.,-0.00065968,0.,0.,0.00018700,0.,0
 .,-0.00062639,0.,0.,-0.00069566,0.,0.,0.00063510,0.,0.,0.00730769,0.,0
 .,0.00378721,0.,0.,0.00600861,0.,0.,0.00413398,0.,0.,-0.06543527,0.,0.
 ,-0.00473071,0.,0.,0.00801217,0.,0.,-0.05647198,0.,0.,0.13000682,-0.27
 153338,0.11929609,0.,0.00383258,-0.00228104,0.,0.00132103,-0.00052218,
 0.,-0.00002246,-0.00053706,0.,-0.02012775,0.01614477,0.,-0.00217854,-0
 .00444634,0.,0.00025127,0.00005942,0.,-0.00005378,-0.00010907,0.,-0.00
 052203,0.00132581,0.,-0.00045168,-0.00032223,0.,0.00007716,-0.00003347
 ,0.,-0.00003337,-0.00007959,0.,-0.00010961,0.00001072,0.,0.00000693,0.
 00018103,0.,0.28775779,0.11991832,-0.12799276,0.,0.02944709,-0.0104604
 0,0.,-0.00193809,-0.00575454,0.,-0.00107476,-0.00041219,0.,-0.01583478
 ,0.01228913,0.,-0.00296958,-0.00175020,0.,0.00032766,0.00017239,0.,-0.
 00013082,-0.00016798,0.,-0.00020722,0.00078403,0.,-0.00032572,-0.00004
 622,0.,0.00009768,0.00002524,0.,-0.00003459,-0.00007817,0.,-0.00004835
 ,0.00007555,0.,0.00004283,0.00006309,0.,-0.12866657,0.13184152,0.,0.,-
 0.03547725,0.,0.,0.00201130,0.,0.,0.00422621,0.,0.,-0.00016365,0.,0.,0
 .00298274,0.,0.,0.00941300,0.,0.,-0.00076407,0.,0.,0.00016908,0.,0.,0.
 00041102,0.,0.,-0.00102471,0.,0.,0.00005514,0.,0.,-0.00000281,0.,0.,0.
 00008714,0.,0.,-0.00007518,0.,0.,0.02494452,0.00383258,0.00228104,0.,-
 0.27153338,-0.11929609,0.,-0.02012776,-0.01614477,0.,-0.00217854,0.004
 44634,0.,0.00132103,0.00052218,0.,-0.00002246,0.00053706,0.,-0.0005220
 3,-0.00132581,0.,-0.00045168,0.00032223,0.,0.00025127,-0.00005942,0.,-
 0.00005378,0.00010907,0.,0.00000693,-0.00018103,0.,-0.00010961,-0.0000
 1072,0.,-0.00003337,0.00007959,0.,0.00007716,0.00003347,0.,0.00073318,
 -0.00043736,0.,0.28775779,-0.02944709,-0.01046040,0.,-0.11991832,-0.12
 799276,0.,0.01583478,0.01228913,0.,0.00296958,-0.00175020,0.,0.0019380
 9,-0.00575454,0.,0.00107476,-0.00041219,0.,0.00020722,0.00078403,0.,0.
 00032572,-0.00004622,0.,-0.00032766,0.00017239,0.,0.00013082,-0.000167
 98,0.,-0.00004283,0.00006309,0.,0.00004835,0.00007555,0.,0.00003459,-0
 .00007817,0.,-0.00009768,0.00002524,0.,0.00043736,0.00110400,0.,0.1286
 6657,0.13184152,0.,0.,0.00201130,0.,0.,-0.03547725,0.,0.,0.00298274,0.
 ,0.,0.00941300,0.,0.,0.00422621,0.,0.,-0.00016365,0.,0.,0.00041102,0.,
 0.,-0.00102471,0.,0.,-0.00076407,0.,0.,0.00016908,0.,0.,-0.00007518,0.
 ,0.,0.00008714,0.,0.,-0.00000281,0.,0.,0.00005514,0.,0.,-0.00230078,0.
 ,0.,0.02494452,-0.00465650,0.00142925,0.,0.00451951,0.02963671,0.,-0.0
 5976593,-0.00067672,0.,0.00334892,-0.02808780,0.,-0.00095411,-0.000047
 96,0.,-0.00488579,-0.00092930,0.,0.00161944,-0.00156317,0.,0.00012143,
 0.00046907,0.,0.00048669,-0.00149398,0.,0.00024732,-0.00008431,0.,-0.0
 0004778,-0.00001801,0.,0.00003842,-0.00000600,0.,-0.00003048,-0.000054
 20,0.,-0.00004277,0.00006837,0.,0.00007589,0.00152626,0.,0.00104791,-0
 .00035385,0.,0.05936078,0.00322726,0.00092579,0.,-0.00247750,-0.012360
 22,0.,0.00009033,-0.33587184,0.,0.00163560,-0.01288276,0.,-0.00017750,
 0.00059090,0.,-0.00284966,0.00097012,0.,0.00189913,0.00068879,0.,-0.00
 043625,0.00023020,0.,0.00071889,-0.00072894,0.,-0.00001549,0.00016935,
 0.,0.00007986,-0.00012397,0.,-0.00005414,-0.00009804,0.,-0.00011300,0.
 00003615,0.,0.00004679,0.00013813,0.,-0.00017402,-0.00073003,0.,0.0002
 6963,0.00098110,0.,-0.00051375,0.35772580,0.,0.,0.00839782,0.,0.,0.003
 42425,0.,0.,-0.03516803,0.,0.,0.00288428,0.,0.,0.00000929,0.,0.,0.0041
 7239,0.,0.,-0.00262979,0.,0.,-0.00012697,0.,0.,0.00022420,0.,0.,-0.000
 14966,0.,0.,0.00010100,0.,0.,0.00000734,0.,0.,-0.00002223,0.,0.,0.0000
 1546,0.,0.,0.00034537,0.,0.,-0.00513696,0.,0.,0.02457408,0.00451951,-0
 .02963671,0.,-0.00465650,-0.00142925,0.,-0.00095411,0.00004796,0.,-0.0
 0488579,0.00092930,0.,-0.05976593,0.00067672,0.,0.00334892,0.02808780,
 0.,0.00048669,0.00149398,0.,0.00024732,0.00008431,0.,0.00161944,0.0015
 6317,0.,0.00012143,-0.00046907,0.,-0.00004277,-0.00006837,0.,-0.000030
 48,0.00005420,0.,0.00003842,0.00000600,0.,-0.00004778,0.00001801,0.,0.
 00104791,0.00035385,0.,0.00007589,-0.00152626,0.,0.00025200,-0.0000055
 2,0.,0.05936078,0.00247750,-0.01236022,0.,-0.00322726,0.00092579,0.,0.
 00017750,0.00059090,0.,0.00284966,0.00097012,0.,-0.00009033,-0.3358718
 4,0.,-0.00163560,-0.01288276,0.,-0.00071889,-0.00072894,0.,0.00001549,
 0.00016935,0.,-0.00189913,0.00068879,0.,0.00043625,0.00023020,0.,-0.00
 004679,0.00013813,0.,0.00011300,0.00003615,0.,0.00005414,-0.00009804,0
 .,-0.00007986,-0.00012397,0.,-0.00026963,0.00098110,0.,0.00017402,-0.0
 0073003,0.,0.00000552,-0.00011796,0.,0.00051375,0.35772580,0.,0.,0.003
 42425,0.,0.,0.00839782,0.,0.,0.00000929,0.,0.,0.00417239,0.,0.,-0.0351
 6803,0.,0.,0.00288428,0.,0.,0.00022420,0.,0.,-0.00014966,0.,0.,-0.0026
 2978,0.,0.,-0.00012697,0.,0.,0.00001546,0.,0.,-0.00002223,0.,0.,0.0000
 0734,0.,0.,0.00010100,0.,0.,-0.00513696,0.,0.,0.00034537,0.,0.,-0.0014
 3809,0.,0.,0.02457408,0.00017751,0.00016182,0.,0.00015385,-0.00041903,
 0.,0.00153310,0.00168866,0.,0.00356084,0.02837939,0.,0.00043012,0.0014
 0580,0.,-0.00473609,0.00107252,0.,-0.06012276,0.,0.,0.00356085,-0.0283
 7934,0.,-0.00089869,0.,0.,-0.00473610,-0.00107252,0.,0.00153310,-0.001
 68866,0.,0.00015385,0.00041903,0.,0.00017751,-0.00016181,0.,0.00043012
 ,-0.00140580,0.,-0.00002299,-0.00006414,0.,-0.00000444,-0.00002042,0.,
 -0.00033988,-0.00089007,0.,-0.00038979,0.00023545,0.,0.06010255,0.0000
 7121,0.00021081,0.,0.00032281,0.00001041,0.,-0.00201971,0.00073528,0.,
 -0.00138005,-0.01340357,0.,-0.00072933,-0.00074985,0.,0.00297064,0.001
 06147,0.,0.00000001,-0.33261462,0.,0.00138009,-0.01340351,0.,0.,0.0005
 0029,0.,-0.00297064,0.00106147,0.,0.00201971,0.00073527,0.,-0.00032281
 ,0.00001042,0.,-0.00007121,0.00021081,0.,0.00072933,-0.00074984,0.,0.0
 0004693,0.00005058,0.,0.00006636,-0.00000684,0.,0.00087885,0.00057477,
 0.,0.00024160,-0.00015079,0.,-0.00000005,0.35562165,0.,0.,-0.00018924,
 0.,0.,-0.00013936,0.,0.,-0.00382020,0.,0.,0.00332428,0.,0.,0.00021431,
 0.,0.,0.00569817,0.,0.,-0.03421509,0.,0.,0.00332423,0.,0.,0.00007361,0
 .,0.,0.00569812,0.,0.,-0.00382017,0.,0.,-0.00013936,0.,0.,-0.00018924,
 0.,0.,0.00021431,0.,0.,0.00004564,0.,0.,0.00026786,0.,0.,0.00022587,0.
 ,0.,0.00026495,0.,0.,0.02374551,0.00015385,0.00041903,0.,0.00017751,-0
 .00016182,0.,0.00043012,-0.00140580,0.,-0.00473609,-0.00107252,0.,0.00
 153310,-0.00168866,0.,0.00356084,-0.02837939,0.,-0.00089869,0.,0.,-0.0
 0473610,0.00107252,0.,-0.06012276,0.,0.,0.00356085,0.02837934,0.,0.000
 43012,0.00140580,0.,0.00017751,0.00016181,0.,0.00015385,-0.00041903,0.
 ,0.00153310,0.00168866,0.,-0.00000444,0.00002042,0.,-0.00002299,0.0000
 6414,0.,-0.00038979,-0.00023545,0.,-0.00033988,0.00089007,0.,0.0001944
 9,0.,0.,0.06010255,-0.00032281,0.00001041,0.,-0.00007121,0.00021081,0.
 ,0.00072933,-0.00074985,0.,-0.00297064,0.00106147,0.,0.00201971,0.0007
 3528,0.,0.00138005,-0.01340357,0.,0.,0.00050029,0.,0.00297064,0.001061
 47,0.,-0.00000001,-0.33261462,0.,-0.00138009,-0.01340351,0.,-0.0007293
 2,-0.00074984,0.,0.00007121,0.00021081,0.,0.00032281,0.00001042,0.,-0.
 00201971,0.00073527,0.,-0.00006636,-0.00000684,0.,-0.00004693,0.000050
 58,0.,-0.00024160,-0.00015079,0.,-0.00087885,0.00057477,0.,0.,-0.00017
 192,0.,0.00000005,0.35562165,0.,0.,-0.00013936,0.,0.,-0.00018924,0.,0.
 ,0.00021431,0.,0.,0.00569817,0.,0.,-0.00382020,0.,0.,0.00332428,0.,0.,
 0.00007361,0.,0.,0.00569812,0.,0.,-0.03421509,0.,0.,0.00332423,0.,0.,0
 .00021431,0.,0.,-0.00018924,0.,0.,-0.00013936,0.,0.,-0.00382017,0.,0.,
 0.00026786,0.,0.,0.00004564,0.,0.,0.00026495,0.,0.,0.00022587,0.,0.,-0
 .00138850,0.,0.,0.02374551,-0.00003048,0.00005420,0.,0.00003842,0.0000
 0600,0.,-0.00004778,0.00001801,0.,0.00012143,-0.00046907,0.,-0.0000427
 7,-0.00006837,0.,0.00024732,0.00008431,0.,0.00161944,0.00156317,0.,0.0
 0334896,0.02808780,0.,0.00048669,0.00149398,0.,-0.00488579,0.00092931,
 0.,-0.05976574,0.00067694,0.,0.00451953,-0.02963672,0.,-0.00465651,-0.
 00142927,0.,-0.00095412,0.00004796,0.,-0.00000196,-0.00001126,0.,0.000
 00524,-0.00000865,0.,-0.00002212,-0.00001281,0.,0.00001355,-0.00002388
 ,0.,-0.00033988,-0.00087885,0.,-0.00038979,0.00024159,0.,0.05936055,0.
 00011300,0.00003615,0.,0.00005414,-0.00009804,0.,-0.00007986,-0.000123
 97,0.,0.00043625,0.00023020,0.,-0.00004679,0.00013813,0.,0.00001549,0.
 00016935,0.,-0.00189914,0.00068878,0.,-0.00163563,-0.01288270,0.,-0.00
 071889,-0.00072893,0.,0.00284966,0.00097012,0.,-0.00009010,-0.33587406
 ,0.,0.00247752,-0.01236018,0.,-0.00322725,0.00092578,0.,0.00017750,0.0
 0059090,0.,0.00001584,0.00000278,0.,0.00002036,0.00000550,0.,0.0000128
 1,0.00003345,0.,-0.00002388,-0.00000828,0.,0.00089007,0.00057477,0.,0.
 00023545,-0.00015079,0.,0.00051354,0.35772793,0.,0.,-0.00002223,0.,0.,
 0.00000733,0.,0.,0.00010100,0.,0.,-0.00012697,0.,0.,0.00001546,0.,0.,-
 0.00014966,0.,0.,-0.00262981,0.,0.,0.00288427,0.,0.,0.00022420,0.,0.,0
 .00417243,0.,0.,-0.03516772,0.,0.,0.00342421,0.,0.,0.00839779,0.,0.,0.
 00000929,0.,0.,0.00000208,0.,0.,-0.00001278,0.,0.,0.00001475,0.,0.,0.0
 0002138,0.,0.,0.00022587,0.,0.,0.00026495,0.,0.,0.02457379,-0.00003337
 ,-0.00007959,0.,-0.00010961,0.00001072,0.,0.00000693,0.00018103,0.,-0.
 00045168,-0.00032223,0.,0.00007716,-0.00003347,0.,-0.00005378,-0.00010
 907,0.,-0.00052203,0.00132581,0.,-0.00217857,-0.00444635,0.,0.00025128
 ,0.00005942,0.,-0.00002246,-0.00053707,0.,-0.02012774,0.01614478,0.,-0
 .27153241,0.11929569,0.,0.00383256,-0.00228102,0.,0.00132104,-0.000522
 18,0.,-0.00001741,0.00000523,0.,-0.00002960,0.00000474,0.,0.00000524,-
 0.00002036,0.,-0.00000196,0.00001584,0.,-0.00000444,-0.00006636,0.,-0.
 00002299,0.00004693,0.,0.00104791,-0.00026963,0.,0.28775684,-0.0000345
 9,-0.00007817,0.,-0.00004835,0.00007555,0.,0.00004283,0.00006309,0.,-0
 .00032572,-0.00004622,0.,0.00009768,0.00002524,0.,-0.00013082,-0.00016
 798,0.,-0.00020722,0.00078403,0.,-0.00296959,-0.00175020,0.,0.00032766
 ,0.00017239,0.,-0.00107476,-0.00041220,0.,-0.01583474,0.01228913,0.,0.
 11991787,-0.12799278,0.,0.02944711,-0.01046043,0.,-0.00193809,-0.00575
 453,0.,0.00000523,-0.00000212,0.,-0.00000474,0.00000656,0.,0.00000865,
 0.00000550,0.,-0.00001126,0.00000278,0.,0.00002042,-0.00000684,0.,-0.0
 0006414,0.00005058,0.,0.00035385,0.00098110,0.,-0.12866619,0.13184157,
 0.,0.,-0.00000281,0.,0.,0.00008714,0.,0.,-0.00007518,0.,0.,-0.00102470
 ,0.,0.,0.00005514,0.,0.,0.00016908,0.,0.,0.00041103,0.,0.,0.00941296,0
 .,0.,-0.00076408,0.,0.,-0.00016366,0.,0.,0.00298272,0.,0.,-0.03547740,
 0.,0.,0.00201131,0.,0.,0.00422627,0.,0.,-0.00002028,0.,0.,0.00001736,0
 .,0.,-0.00001278,0.,0.,0.00000208,0.,0.,0.00026785,0.,0.,0.00004564,0.
 ,0.,-0.00513693,0.,0.,0.02494467,-0.00010961,-0.00001072,0.,-0.0000333
 7,0.00007959,0.,0.00007716,0.00003347,0.,-0.00005378,0.00010907,0.,0.0
 0000693,-0.00018103,0.,-0.00045168,0.00032223,0.,0.00025128,-0.0000594
 2,0.,-0.00002246,0.00053707,0.,-0.00052203,-0.00132581,0.,-0.00217857,
 0.00444635,0.,0.00132104,0.00052218,0.,0.00383256,0.00228102,0.,-0.271
 53241,-0.11929569,0.,-0.02012774,-0.01614478,0.,-0.00002960,-0.0000047
 4,0.,-0.00001741,-0.00000523,0.,-0.00000196,-0.00001584,0.,0.00000524,
 0.00002036,0.,-0.00002299,-0.00004693,0.,-0.00000444,0.00006636,0.,0.0
 0007589,0.00017402,0.,0.00073319,-0.00043736,0.,0.28775684,0.00004835,
 0.00007555,0.,0.00003459,-0.00007817,0.,-0.00009768,0.00002524,0.,0.00
 013082,-0.00016798,0.,-0.00004283,0.00006309,0.,0.00032572,-0.00004622
 ,0.,-0.00032766,0.00017239,0.,0.00107476,-0.00041220,0.,0.00020722,0.0
 0078403,0.,0.00296959,-0.00175020,0.,0.00193809,-0.00575453,0.,-0.0294
 4711,-0.01046043,0.,-0.11991787,-0.12799278,0.,0.01583474,0.01228913,0
 .,0.00000474,0.00000656,0.,-0.00000523,-0.00000212,0.,0.00001126,0.000
 00278,0.,-0.00000865,0.00000550,0.,0.00006414,0.00005058,0.,-0.0000204
 2,-0.00000684,0.,-0.00152626,-0.00073003,0.,0.00043735,0.00110400,0.,0
 .12866619,0.13184157,0.,0.,0.00008714,0.,0.,-0.00000281,0.,0.,0.000055
 14,0.,0.,0.00016908,0.,0.,-0.00007518,0.,0.,-0.00102470,0.,0.,-0.00076
 408,0.,0.,-0.00016366,0.,0.,0.00041103,0.,0.,0.00941296,0.,0.,0.004226
 27,0.,0.,0.00201131,0.,0.,-0.03547740,0.,0.,0.00298272,0.,0.,0.0000173
 6,0.,0.,-0.00002028,0.,0.,0.00000208,0.,0.,-0.00001278,0.,0.,0.0000456
 4,0.,0.,0.00026785,0.,0.,0.00034537,0.,0.,-0.00230081,0.,0.,0.02494467
 ,0.00003842,-0.00000600,0.,-0.00003048,-0.00005420,0.,-0.00004277,0.00
 006837,0.,0.00024732,-0.00008431,0.,-0.00004778,-0.00001801,0.,0.00012
 143,0.00046907,0.,0.00048669,-0.00149398,0.,-0.00488579,-0.00092931,0.
 ,0.00161944,-0.00156317,0.,0.00334896,-0.02808780,0.,-0.00095412,-0.00
 004796,0.,-0.00465651,0.00142927,0.,0.00451953,0.02963672,0.,-0.059765
 74,-0.00067694,0.,0.00000524,0.00000865,0.,-0.00000196,0.00001126,0.,0
 .00001355,0.00002388,0.,-0.00002212,0.00001281,0.,-0.00038979,-0.00024
 159,0.,-0.00033988,0.00087885,0.,0.00025200,0.00000552,0.,0.00007589,0
 .00152626,0.,0.00104791,-0.00035385,0.,0.05936055,-0.00005414,-0.00009
 804,0.,-0.00011300,0.00003615,0.,0.00004679,0.00013813,0.,-0.00001549,
 0.00016935,0.,0.00007986,-0.00012397,0.,-0.00043625,0.00023020,0.,0.00
 071889,-0.00072893,0.,-0.00284966,0.00097012,0.,0.00189914,0.00068878,
 0.,0.00163563,-0.01288270,0.,-0.00017750,0.00059090,0.,0.00322725,0.00
 092578,0.,-0.00247752,-0.01236018,0.,0.00009010,-0.33587406,0.,-0.0000
 2036,0.00000550,0.,-0.00001584,0.00000278,0.,0.00002388,-0.00000828,0.
 ,-0.00001281,0.00003345,0.,-0.00023545,-0.00015079,0.,-0.00089007,0.00
 057477,0.,-0.00000552,-0.00011796,0.,-0.00017402,-0.00073003,0.,0.0002
 6963,0.00098110,0.,-0.00051354,0.35772793,0.,0.,0.00000733,0.,0.,-0.00
 002223,0.,0.,0.00001546,0.,0.,-0.00014966,0.,0.,0.00010100,0.,0.,-0.00
 012697,0.,0.,0.00022420,0.,0.,0.00417243,0.,0.,-0.00262981,0.,0.,0.002
 88427,0.,0.,0.00000929,0.,0.,0.00839779,0.,0.,0.00342421,0.,0.,-0.0351
 6772,0.,0.,-0.00001278,0.,0.,0.00000208,0.,0.,0.00002138,0.,0.,0.00001
 475,0.,0.,0.00026495,0.,0.,0.00022587,0.,0.,-0.00143808,0.,0.,0.000345
 37,0.,0.,-0.00513693,0.,0.,0.02457379\\-0.00004565,-0.00019964,0.,-0.0
 0004565,0.00019964,0.,0.00014540,0.00005103,0.,-0.00004323,-0.00012439
 ,0.,0.00014540,-0.00005103,0.,-0.00004323,0.00012439,0.,0.00000023,0.0
 0011976,0.,0.00004227,-0.00012579,0.,0.00000023,-0.00011976,0.,0.00004
 227,0.00012579,0.,-0.00014402,0.00005216,0.,0.00004532,0.00019802,0.,0
 .00004532,-0.00019802,0.,-0.00014402,-0.00005216,0.,0.00002160,0.00003
 104,0.,0.00002160,-0.00003104,0.,-0.00004004,0.00001301,0.,-0.00004004
 ,-0.00001301,0.,0.00000005,0.00000966,0.,0.00000005,-0.00000966,0.,0.0
 0003993,0.00001239,0.,-0.00002186,-0.00003084,0.,-0.00002186,0.0000308
 4,0.,0.00003993,-0.00001239,0.\\\@


 HAPPINESS IS NOT HAVING WHAT YOU WANT --
 HAPPINESS IS WANTING WHAT YOU HAVE!

              -- FROM MRS. SEVERN'S DESK
 Job cpu time:  0 days  0 hours 20 minutes 56.7 seconds.
 File lengths (MBytes):  RWF=    161 Int=      0 D2E=      0 Chk=      5 Scr=      1
 Normal termination of Gaussian 09 at Tue Oct  8 20:59:55 2019.
