 Entering Gaussian System, Link 0=g09
 Input=td.com
 Output=td.log
 Initial command:
 /home/diegoa/progs/g09/l1.exe /home/diegoa/g09scratch/Gau-8715.inp -scrdir=/home/diegoa/g09scratch/
 Default is to use a total of   4 processors:
                                4 via shared-memory
                                1 via Linda
 Entering Link 1 = /home/diegoa/progs/g09/l1.exe PID=      8718.
  
 Copyright (c) 1988,1990,1992,1993,1995,1998,2003,2009, Gaussian, Inc.
                  All Rights Reserved.
  
 This is part of the Gaussian(R) 09 program.  It is based on
 the Gaussian(R) 03 system (copyright 2003, Gaussian, Inc.),
 the Gaussian(R) 98 system (copyright 1998, Gaussian, Inc.),
 the Gaussian(R) 94 system (copyright 1995, Gaussian, Inc.),
 the Gaussian 92(TM) system (copyright 1992, Gaussian, Inc.),
 the Gaussian 90(TM) system (copyright 1990, Gaussian, Inc.),
 the Gaussian 88(TM) system (copyright 1988, Gaussian, Inc.),
 the Gaussian 86(TM) system (copyright 1986, Carnegie Mellon
 University), and the Gaussian 82(TM) system (copyright 1983,
 Carnegie Mellon University). Gaussian is a federally registered
 trademark of Gaussian, Inc.
  
 This software contains proprietary and confidential information,
 including trade secrets, belonging to Gaussian, Inc.
  
 This software is provided under written license and may be
 used, copied, transmitted, or stored only in accord with that
 written license.
  
 The following legend is applicable only to US Government
 contracts under FAR:
  
                    RESTRICTED RIGHTS LEGEND
  
 Use, reproduction and disclosure by the US Government is
 subject to restrictions as set forth in subparagraphs (a)
 and (c) of the Commercial Computer Software - Restricted
 Rights clause in FAR 52.227-19.
  
 Gaussian, Inc.
 340 Quinnipiac St., Bldg. 40, Wallingford CT 06492
  
  
 ---------------------------------------------------------------
 Warning -- This program may not be used in any manner that
 competes with the business of Gaussian, Inc. or will provide
 assistance to any competitor of Gaussian, Inc.  The licensee
 of this program is prohibited from giving any competitor of
 Gaussian, Inc. access to this program.  By using this program,
 the user acknowledges that Gaussian, Inc. is engaged in the
 business of creating and licensing software in the field of
 computational chemistry and represents and warrants to the
 licensee that it is not a competitor of Gaussian, Inc. and that
 it will not use this program in any manner prohibited above.
 ---------------------------------------------------------------
  

 Cite this work as:
 Gaussian 09, Revision A.01,
 M. J. Frisch, G. W. Trucks, H. B. Schlegel, G. E. Scuseria, 
 M. A. Robb, J. R. Cheeseman, G. Scalmani, V. Barone, B. Mennucci, 
 G. A. Petersson, H. Nakatsuji, M. Caricato, X. Li, H. P. Hratchian, 
 A. F. Izmaylov, J. Bloino, G. Zheng, J. L. Sonnenberg, M. Hada, 
 M. Ehara, K. Toyota, R. Fukuda, J. Hasegawa, M. Ishida, T. Nakajima, 
 Y. Honda, O. Kitao, H. Nakai, T. Vreven, J. A. Montgomery, Jr., 
 J. E. Peralta, F. Ogliaro, M. Bearpark, J. J. Heyd, E. Brothers, 
 K. N. Kudin, V. N. Staroverov, R. Kobayashi, J. Normand, 
 K. Raghavachari, A. Rendell, J. C. Burant, S. S. Iyengar, J. Tomasi, 
 M. Cossi, N. Rega, J. M. Millam, M. Klene, J. E. Knox, J. B. Cross, 
 V. Bakken, C. Adamo, J. Jaramillo, R. Gomperts, R. E. Stratmann, 
 O. Yazyev, A. J. Austin, R. Cammi, C. Pomelli, J. W. Ochterski, 
 R. L. Martin, K. Morokuma, V. G. Zakrzewski, G. A. Voth, 
 P. Salvador, J. J. Dannenberg, S. Dapprich, A. D. Daniels, 
 O. Farkas, J. B. Foresman, J. V. Ortiz, J. Cioslowski, 
 and D. J. Fox, Gaussian, Inc., Wallingford CT, 2009.
 
 ******************************************
 Gaussian 09:  EM64L-G09RevA.01  8-May-2009
                 8-Oct-2019 
 ******************************************
 %chk=td.chk
 %NProcShared=4
 Will use up to    4 processors via shared memory.
 Default route:  MP2=Direct MaxDisk=1000GB DenFit
 ----------------------------------------
 # b3lyp/6-31G(d) TD(root=1) Force nosymm
 ----------------------------------------
 1/10=7,30=1,38=1/1,3;
 2/12=2,15=1,17=6,18=5,40=1/2;
 3/5=1,6=6,7=1,11=2,16=1,25=1,30=1,71=1,74=-5,82=47/1,2,8,3;
 4//1;
 5/5=2,38=5/2;
 8/6=1,10=2,107=1/1;
 9/8=1,15=2,42=1/14;
 10/5=4,31=1/2;
 6/7=2,8=2,9=2,10=2,18=1/1;
 7/12=6,13=5,14=1,29=1,30=1/1,2,3,16;
 1/10=7,30=1/3;
 99//99;
 -----
 Title
 -----
 Symbolic Z-matrix:
 Charge =  0 Multiplicity = 1
 6                     3.66055  -0.71328   0. 
 6                     3.66055   0.71328   0. 
 6                     2.47952   1.40723   0. 
 6                     1.22385   0.72256   0. 
 6                     2.47952  -1.40723   0. 
 6                     1.22385  -0.72256   0. 
 6                     0.        1.40359   0. 
 6                    -1.22386   0.72256   0. 
 6                     0.       -1.40359   0. 
 6                    -1.22386  -0.72256   0. 
 6                    -2.47952   1.40723   0. 
 6                    -3.66055   0.71328   0. 
 6                    -3.66055  -0.71328   0. 
 6                    -2.47952  -1.40723   0. 
 1                     4.60744  -1.24643   0. 
 1                     4.60744   1.24643   0. 
 1                     2.47641   2.49479   0. 
 1                     2.47641  -2.49479   0. 
 1                     0.        2.49196   0. 
 1                     0.       -2.49196   0. 
 1                    -2.47641   2.49479   0. 
 1                    -4.60744   1.24643   0. 
 1                    -4.60744  -1.24643   0. 
 1                    -2.47641  -2.49479   0. 
 

 GradGradGradGradGradGradGradGradGradGradGradGradGradGradGradGradGradGrad
 Berny optimization.
 Initialization pass.
 Trust Radius=3.00D-01 FncErr=1.00D-07 GrdErr=1.00D-07
 Number of steps in this run=   2 maximum allowed number of steps=   2.
 GradGradGradGradGradGradGradGradGradGradGradGradGradGradGradGradGradGrad

                          Input orientation:                          
 ---------------------------------------------------------------------
 Center     Atomic      Atomic             Coordinates (Angstroms)
 Number     Number       Type             X           Y           Z
 ---------------------------------------------------------------------
      1          6           0        3.660550   -0.713280    0.000000
      2          6           0        3.660550    0.713280    0.000000
      3          6           0        2.479520    1.407230    0.000000
      4          6           0        1.223850    0.722560    0.000000
      5          6           0        2.479520   -1.407230    0.000000
      6          6           0        1.223850   -0.722560    0.000000
      7          6           0        0.000000    1.403590    0.000000
      8          6           0       -1.223860    0.722560    0.000000
      9          6           0        0.000000   -1.403590    0.000000
     10          6           0       -1.223860   -0.722560    0.000000
     11          6           0       -2.479520    1.407230    0.000000
     12          6           0       -3.660550    0.713280    0.000000
     13          6           0       -3.660550   -0.713280    0.000000
     14          6           0       -2.479520   -1.407230    0.000000
     15          1           0        4.607440   -1.246430    0.000000
     16          1           0        4.607440    1.246430    0.000000
     17          1           0        2.476410    2.494790    0.000000
     18          1           0        2.476410   -2.494790    0.000000
     19          1           0        0.000000    2.491960    0.000000
     20          1           0        0.000000   -2.491960    0.000000
     21          1           0       -2.476410    2.494790    0.000000
     22          1           0       -4.607440    1.246430    0.000000
     23          1           0       -4.607440   -1.246430    0.000000
     24          1           0       -2.476410   -2.494790    0.000000
 ---------------------------------------------------------------------
                    Distance matrix (angstroms):
                    1          2          3          4          5
     1  C    0.000000
     2  C    1.426560   0.000000
     3  C    2.427220   1.369817   0.000000
     4  C    2.828276   2.436718   1.430203   0.000000
     5  C    1.369817   2.427220   2.814460   2.472390   0.000000
     6  C    2.436718   2.828276   2.472390   1.445120   1.430203
     7  C    4.228565   3.725071   2.479523   1.400575   3.748163
     8  C    5.091080   4.884419   3.766138   2.447710   4.272122
     9  C    3.725071   4.228565   3.748163   2.453227   2.479523
    10  C    4.884419   5.091080   4.272122   2.842474   3.766138
    11  C    6.495924   6.179161   4.959040   3.766128   5.702040
    12  C    7.458792   7.321100   6.179161   4.884409   6.495924
    13  C    7.321100   7.458792   6.495924   5.091071   6.179161
    14  C    6.179161   6.495924   5.702040   4.272114   4.959040
    15  H    1.086669   2.176480   3.401464   3.914793   2.133987
    16  H    2.176480   1.086669   2.133987   3.423904   3.401464
    17  H    3.419635   2.139151   1.087564   2.170186   3.902021
    18  H    2.139151   3.419635   3.902021   3.452571   1.087564
    19  H    4.865510   4.069807   2.706411   2.151415   4.620790
    20  H    4.069807   4.865510   4.620790   3.439614   2.706411
    21  H    6.924882   6.390310   5.073857   4.102770   6.307694
    22  H    8.497065   8.285162   7.088784   5.854774   7.567491
    23  H    8.285162   8.497065   7.567491   6.154743   7.088784
    24  H    6.390310   6.924882   6.307694   4.903393   5.073857
                    6          7          8          9         10
     6  C    0.000000
     7  C    2.453227   0.000000
     8  C    2.842474   1.400584   0.000000
     9  C    1.400575   2.807180   2.453232   0.000000
    10  C    2.447710   2.453232   1.445120   1.400584   0.000000
    11  C    4.272114   2.479523   1.430194   3.748163   2.472385
    12  C    5.091071   3.725071   2.436708   4.228565   2.828267
    13  C    4.884409   4.228565   2.828267   3.725071   2.436708
    14  C    3.766128   3.748163   2.472385   2.479523   1.430194
    15  H    3.423904   5.315177   6.154753   4.610120   5.854784
    16  H    3.914793   4.610120   5.854784   5.315177   6.154753
    17  H    3.452571   2.706164   4.102779   4.618438   4.903401
    18  H    2.170186   4.618438   4.903401   2.706164   4.102779
    19  H    3.439614   1.088370   2.151420   3.895550   3.439618
    20  H    2.151415   3.895550   3.439618   1.088370   2.151420
    21  H    4.903393   2.706164   2.170180   4.618438   3.452568
    22  H    6.154743   4.610120   3.423894   5.315177   3.914784
    23  H    5.854774   5.315177   3.914784   4.610120   3.423894
    24  H    4.102770   4.618438   3.452568   2.706164   2.170180
                   11         12         13         14         15
    11  C    0.000000
    12  C    1.369817   0.000000
    13  C    2.427220   1.426560   0.000000
    14  C    2.814460   2.427220   1.369817   0.000000
    15  H    7.567491   8.497065   8.285162   7.088784   0.000000
    16  H    7.088784   8.285162   8.497065   7.567491   2.492860
    17  H    5.073857   6.390310   6.924882   6.307694   4.305580
    18  H    6.307694   6.924882   6.390310   5.073857   2.469755
    19  H    2.706411   4.069807   4.865510   4.620790   5.933301
    20  H    4.620790   4.865510   4.069807   2.706411   4.772824
    21  H    1.087564   2.139151   3.419635   3.902021   8.011096
    22  H    2.133987   1.086669   2.176480   3.401464   9.546118
    23  H    3.401464   2.176480   1.086669   2.133987   9.214880
    24  H    3.902021   3.419635   2.139151   1.087564   7.193006
                   16         17         18         19         20
    16  H    0.000000
    17  H    2.469755   0.000000
    18  H    4.305580   4.989580   0.000000
    19  H    4.772824   2.476412   5.567790   0.000000
    20  H    5.933301   5.567790   2.476412   4.983920   0.000000
    21  H    7.193006   4.952820   7.030387   2.476412   5.567790
    22  H    9.214880   7.193006   8.011096   4.772824   5.933301
    23  H    9.546118   8.011096   7.193006   5.933301   4.772824
    24  H    8.011096   7.030387   4.952820   5.567790   2.476412
                   21         22         23         24
    21  H    0.000000
    22  H    2.469755   0.000000
    23  H    4.305580   2.492860   0.000000
    24  H    4.989580   4.305580   2.469755   0.000000
 Symmetry turned off by external request.
 Stoichiometry    C14H10
 Framework group  C2V[SGV(C14H10)]
 Deg. of freedom    23
 Full point group                 C2V     NOp   4
 Rotational constants (GHZ):      2.1442737      0.4510366      0.3726514
 Standard basis: 6-31G(d) (6D, 7F)
 Integral buffers will be    131072 words long.
 Raffenetti 2 integral format.
 Two-electron integral symmetry is turned off.
   230 basis functions,   432 primitive gaussians,   230 cartesian basis functions
    47 alpha electrons       47 beta electrons
       nuclear repulsion energy       765.2182974857 Hartrees.
 NAtoms=   24 NActive=   24 NUniq=   24 SFac= 7.50D-01 NAtFMM=   80 NAOKFM=F Big=F
 Standard density basis: Auto (5D, 7F)
   922 Density fitting functions
 One-electron integrals computed using PRISM.
 NBasis=   230 RedAO= T  NBF=   230
 NBsUse=   230 1.00D-06 NBFU=   230
 Harris functional with IExCor=  402 diagonalized for initial guess.
 ExpMin= 1.61D-01 ExpMax= 3.05D+03 ExpMxC= 4.57D+02 IAcc=1 IRadAn=         1 AccDes= 0.00D+00
 HarFok:  IExCor=  402 AccDes= 0.00D+00 IRadAn=         1 IDoV= 1
 ScaDFX=  1.000000  1.000000  1.000000  1.000000
 FoFCou: FMM=F IPFlag=           0 FMFlag=      100000 FMFlg1=           0
         NFxFlg=           0 DoJE=T BraDBF=F KetDBF=T FulRan=T
         Omega=  0.000000  0.000000  1.000000  0.000000  0.000000 ICntrl=     500 IOpCl=  0
         NMat0=    1 NMatS0=    1 NMatT0=    0 NMatD0=    1 NMtDS0=    0 NMtDT0=    0
         I1Cent=           4 NGrid=           0.
 Symmetry not used in FoFCou.
 Requested convergence on RMS density matrix=1.00D-08 within 128 cycles.
 Requested convergence on MAX density matrix=1.00D-06.
 Requested convergence on             energy=1.00D-06.
 No special actions if energy rises.
 Keep R1 ints in memory in canonical form, NReq=359408909.
 Integral accuracy reduced to 1.0D-05 until final iterations.
 Initial convergence to 1.0D-05 achieved.  Increase integral accuracy.
 SCF Done:  E(RB3LYP) =  -539.530523221     A.U. after   13 cycles
             Convg  =    0.8658D-08             -V/T =  2.0099
 ExpMin= 1.61D-01 ExpMax= 3.05D+03 ExpMxC= 4.57D+02 IAcc=1 IRadAn=         1 AccDes= 0.00D+00
 HarFok:  IExCor=  205 AccDes= 0.00D+00 IRadAn=         1 IDoV=-2
 ScaDFX=  1.000000  1.000000  1.000000  1.000000
 Range of M.O.s used for correlation:    15   230
 NBasis=   230 NAE=    47 NBE=    47 NFC=    14 NFV=     0
 NROrb=    216 NOA=    33 NOB=    33 NVA=   183 NVB=   183

 **** Warning!!: The largest alpha MO coefficient is  0.13272337D+02

 Would need an additional   302000000 words for in-memory AO integral storage.
    12 initial guesses have been made.
 Convergence on wavefunction:    0.000001000000000
 Iteration     1 Dimension    12 NMult    12
 CISAX will form    12 AO SS matrices at one time.
 New state      2 was old state      3
 No map to state      3
 Iteration     2 Dimension    18 NMult    18
 Iteration     3 Dimension    24 NMult    24
 Iteration     4 Dimension    30 NMult    30
 Iteration     5 Dimension    36 NMult    36
 Iteration     6 Dimension    42 NMult    42
 Iteration     7 Dimension    48 NMult    48
 Iteration     8 Dimension    54 NMult    54
 Iteration     9 Dimension    60 NMult    60
 Iteration    10 Dimension    64 NMult    64
 ***********************************************************************
 Excited states from <AA,BB:AA,BB> singles matrix:
 ***********************************************************************
 
 Ground to excited state transition electric dipole moments (Au):
       state          X           Y           Z        Dip. S.      Osc.
         1         0.0000     -0.8522      0.0000      0.7263      0.0583
         2        -0.1330      0.0000      0.0000      0.0177      0.0017
         3         0.0000      0.0000      0.0000      0.0000      0.0000
 Ground to excited state transition velocity dipole moments (Au):
       state          X           Y           Z        Dip. S.      Osc.
         1         0.0000      0.1239      0.0000      0.0153      0.0850
         2         0.0100      0.0000      0.0000      0.0001      0.0005
         3         0.0000      0.0000      0.0000      0.0000      0.0000
 Ground to excited state transition magnetic dipole moments (Au):
       state          X           Y           Z
         1         0.0000      0.0000      0.0001
         2         0.0000      0.0000      0.0000
         3         0.0000      0.0000      0.0989
 <0|del|b> * <b|rxdel|0> + <0|del|b> * <b|delr+rdel|0>
 Rotatory Strengths (R) in cgs (10**-40 erg-esu-cm/Gauss)
       state          XX          YY          ZZ    R(velocity)
         1         0.0000      0.0000      0.0000      0.0000
 Total R(velocity) tensor for State=          1
                 1             2             3 
      1   0.000000D+00  0.000000D+00  0.000000D+00
      2   0.000000D+00  0.000000D+00 -0.158598D-01
      3   0.000000D+00  0.000000D+00  0.000000D+00
         2         0.0000      0.0000      0.0000      0.0000
 Total R(velocity) tensor for State=          2
                 1             2             3 
      1   0.000000D+00  0.000000D+00  0.000000D+00
      2   0.000000D+00  0.000000D+00  0.235878D-05
      3   0.000000D+00  0.162816D-04  0.000000D+00
         3         0.0000      0.0000      0.0000      0.0000
 Total R(velocity) tensor for State=          3
                 1             2             3 
      1   0.000000D+00  0.000000D+00  0.000000D+00
      2   0.000000D+00  0.000000D+00 -0.260954D-04
      3   0.000000D+00  0.000000D+00  0.000000D+00
 1/2[<0|r|b>*<b|rxdel|0> + (<0|rxdel|b>*<b|r|0>)*]
 Rotatory Strengths (R) in cgs (10**-40 erg-esu-cm/Gauss)
       state          XX          YY          ZZ     R(length)     R(au)
         1         0.0000      0.0000      0.0000      0.0000      0.0000
         2         0.0000      0.0000      0.0000      0.0000      0.0000
         3         0.0000      0.0000      0.0000      0.0000      0.0000
  1/2[<0|del|b>*<b|r|0> + (<0|r|b>*<b|del|0>)*] (Au)
       state          X           Y           Z        Dip. S.   Osc.(frdel)
         1         0.0000     -0.1056      0.0000      0.1056      0.0704
         2        -0.0013      0.0000      0.0000      0.0013      0.0009
         3         0.0000      0.0000      0.0000      0.0000      0.0000
 Ground to excited state transition densities written to RWF  633

 Excitation energies and oscillator strengths:
 
 Excited state symmetry could not be determined.
 Excited State   1:      Singlet-?Sym    3.2772 eV  378.33 nm  f=0.0583  <S**2>=0.000
      47 -> 48         0.69992
 This state for optimization and/or second-order correction.
 Copying the excited state density for this state as the 1-particle RhoCI density.
 
 Excited state symmetry could not be determined.
 Excited State   2:      Singlet-?Sym    3.9088 eV  317.20 nm  f=0.0017  <S**2>=0.000
      46 -> 48         0.51337
      47 -> 49         0.48411
 
 Excited state symmetry could not be determined.
 Excited State   3:      Singlet-?Sym    4.5898 eV  270.13 nm  f=0.0000  <S**2>=0.000
      45 -> 48         0.58543
      47 -> 50         0.39256
 SavETr:  write IOETrn=   770 NScale= 10 NData=  16 NLR=1 LETran=      64.
          IDoAtm=111111111111111111111111
          Differentiating once with respect to electric field.
                with respect to dipole field.
          Differentiating once with respect to nuclear coordinates.
          Keep R1 ints in memory in canonical form, NReq=353695599.
          There are     1 degrees of freedom in the 1st order CPHF.  IDoFFX=0.
 LinEq1:  Iter=  0 NonCon=     1 RMS=2.06D-03 Max=1.52D-01
 AX will form     1 AO Fock derivatives at one time.
 LinEq1:  Iter=  1 NonCon=     1 RMS=1.60D-03 Max=1.08D-01
 LinEq1:  Iter=  2 NonCon=     1 RMS=7.24D-04 Max=3.25D-02
 LinEq1:  Iter=  3 NonCon=     1 RMS=4.10D-04 Max=1.43D-02
 LinEq1:  Iter=  4 NonCon=     1 RMS=1.17D-04 Max=3.22D-03
 LinEq1:  Iter=  5 NonCon=     1 RMS=5.49D-05 Max=1.51D-03
 LinEq1:  Iter=  6 NonCon=     1 RMS=1.51D-05 Max=2.53D-04
 LinEq1:  Iter=  7 NonCon=     1 RMS=5.85D-06 Max=1.92D-04
 LinEq1:  Iter=  8 NonCon=     1 RMS=3.47D-06 Max=1.12D-04
 LinEq1:  Iter=  9 NonCon=     1 RMS=8.26D-07 Max=1.84D-05
 LinEq1:  Iter= 10 NonCon=     1 RMS=8.61D-08 Max=2.11D-06
 LinEq1:  Iter= 11 NonCon=     1 RMS=5.70D-08 Max=2.84D-06
 LinEq1:  Iter= 12 NonCon=     1 RMS=2.61D-08 Max=5.40D-07
 LinEq1:  Iter= 13 NonCon=     1 RMS=5.24D-09 Max=1.19D-07
 LinEq1:  Iter= 14 NonCon=     1 RMS=4.53D-09 Max=1.18D-07
 LinEq1:  Iter= 15 NonCon=     1 RMS=9.15D-10 Max=2.29D-08
 LinEq1:  Iter= 16 NonCon=     1 RMS=4.89D-10 Max=1.18D-08
 LinEq1:  Iter= 17 NonCon=     1 RMS=1.29D-10 Max=2.58D-09
 LinEq1:  Iter= 18 NonCon=     0 RMS=2.20D-11 Max=5.12D-10
 Linear equations converged to 1.000D-10 1.000D-09 after    18 iterations.
 End of Minotr Frequency-dependent properties file   721 does not exist.
 End of Minotr Frequency-dependent properties file   722 does not exist.

 **********************************************************************

            Population analysis using the SCF density.

 **********************************************************************

 Alpha  occ. eigenvalues --  -10.19742 -10.19740 -10.19704 -10.19701 -10.19077
 Alpha  occ. eigenvalues --  -10.19077 -10.19042 -10.19042 -10.18979 -10.18979
 Alpha  occ. eigenvalues --  -10.18971 -10.18970 -10.18968 -10.18967  -0.87727
 Alpha  occ. eigenvalues --   -0.84597  -0.79744  -0.78056  -0.74840  -0.73509
 Alpha  occ. eigenvalues --   -0.70018  -0.64174  -0.61259  -0.59746  -0.58841
 Alpha  occ. eigenvalues --   -0.53747  -0.51831  -0.50105  -0.46343  -0.45959
 Alpha  occ. eigenvalues --   -0.44986  -0.44129  -0.42220  -0.41250  -0.40305
 Alpha  occ. eigenvalues --   -0.39591  -0.38637  -0.37649  -0.35790  -0.34481
 Alpha  occ. eigenvalues --   -0.33326  -0.32440  -0.30024  -0.29528  -0.25382
 Alpha  occ. eigenvalues --   -0.23722  -0.19206
 Alpha virt. eigenvalues --   -0.05994  -0.01048   0.00873   0.04561   0.06839
 Alpha virt. eigenvalues --    0.09933   0.10250   0.11081   0.14152   0.14638
 Alpha virt. eigenvalues --    0.15696   0.16810   0.17133   0.17817   0.18120
 Alpha virt. eigenvalues --    0.21415   0.21671   0.23200   0.26802   0.27098
 Alpha virt. eigenvalues --    0.30447   0.30916   0.31051   0.33219   0.33955
 Alpha virt. eigenvalues --    0.34646   0.39320   0.46447   0.48868   0.49627
 Alpha virt. eigenvalues --    0.49704   0.50420   0.50713   0.52913   0.54677
 Alpha virt. eigenvalues --    0.55435   0.55443   0.55561   0.56664   0.57484
 Alpha virt. eigenvalues --    0.57492   0.58364   0.59342   0.60116   0.60428
 Alpha virt. eigenvalues --    0.61653   0.61989   0.62363   0.63011   0.63116
 Alpha virt. eigenvalues --    0.63324   0.63887   0.64123   0.65767   0.68536
 Alpha virt. eigenvalues --    0.70784   0.73777   0.75032   0.80862   0.82345
 Alpha virt. eigenvalues --    0.82559   0.83567   0.83586   0.84075   0.84648
 Alpha virt. eigenvalues --    0.85395   0.85801   0.86070   0.89997   0.90110
 Alpha virt. eigenvalues --    0.92001   0.92877   0.94491   0.95967   0.96451
 Alpha virt. eigenvalues --    0.99152   1.01909   1.03661   1.04061   1.06205
 Alpha virt. eigenvalues --    1.07269   1.11828   1.12986   1.16886   1.17385
 Alpha virt. eigenvalues --    1.19246   1.23162   1.23434   1.24302   1.27049
 Alpha virt. eigenvalues --    1.29321   1.33914   1.37347   1.37610   1.40404
 Alpha virt. eigenvalues --    1.41140   1.44132   1.44324   1.46109   1.47547
 Alpha virt. eigenvalues --    1.48820   1.49921   1.50136   1.50249   1.50761
 Alpha virt. eigenvalues --    1.53694   1.54220   1.54688   1.72912   1.75059
 Alpha virt. eigenvalues --    1.75559   1.78188   1.83450   1.87417   1.88396
 Alpha virt. eigenvalues --    1.89522   1.91031   1.92000   1.92411   1.92427
 Alpha virt. eigenvalues --    1.92899   1.93683   1.95926   1.96871   1.97141
 Alpha virt. eigenvalues --    2.00097   2.01549   2.06960   2.08972   2.12595
 Alpha virt. eigenvalues --    2.13666   2.15287   2.18158   2.21499   2.21850
 Alpha virt. eigenvalues --    2.23036   2.26483   2.27390   2.28024   2.31160
 Alpha virt. eigenvalues --    2.35207   2.35814   2.36631   2.38257   2.38508
 Alpha virt. eigenvalues --    2.40798   2.46081   2.58710   2.60793   2.64607
 Alpha virt. eigenvalues --    2.65631   2.65689   2.66660   2.67279   2.67476
 Alpha virt. eigenvalues --    2.73629   2.73831   2.78456   2.82470   2.85003
 Alpha virt. eigenvalues --    2.85189   2.91697   2.92848   2.93166   3.09029
 Alpha virt. eigenvalues --    3.11174   3.30031   3.43539   3.49307   4.07918
 Alpha virt. eigenvalues --    4.08337   4.10255   4.12246   4.12255   4.13015
 Alpha virt. eigenvalues --    4.17079   4.23344   4.33198   4.35548   4.42811
 Alpha virt. eigenvalues --    4.45163   4.65846   4.85665
          Condensed to atoms (all electrons):
              1          2          3          4          5          6
     1  C    4.907149   0.477323  -0.021749  -0.036947   0.536994  -0.004634
     2  C    0.477323   4.907149   0.536994  -0.004634  -0.021749  -0.036947
     3  C   -0.021749   0.536994   5.078563   0.434088  -0.065566  -0.029679
     4  C   -0.036947  -0.004634   0.434088   4.736414  -0.029679   0.460995
     5  C    0.536994  -0.021749  -0.065566  -0.029679   5.078563   0.434088
     6  C   -0.004634  -0.036947  -0.029679   0.460995   0.434088   4.736414
     7  C   -0.000626   0.007858  -0.085097   0.398122   0.015333  -0.021224
     8  C    0.000030  -0.000296   0.007277   0.011488  -0.000198  -0.033581
     9  C    0.007858  -0.000626   0.015333  -0.021224  -0.085097   0.398122
    10  C   -0.000296   0.000030  -0.000198  -0.033581   0.007277   0.011488
    11  C    0.000000   0.000002  -0.000213   0.007277  -0.000006  -0.000198
    12  C    0.000000   0.000000   0.000002  -0.000296   0.000000   0.000030
    13  C    0.000000   0.000000   0.000000   0.000030   0.000002  -0.000296
    14  C    0.000002   0.000000  -0.000006  -0.000198  -0.000213   0.007277
    15  H    0.356913  -0.041348   0.004173   0.000964  -0.036341   0.002775
    16  H   -0.041348   0.356913  -0.036341   0.002775   0.004173   0.000964
    17  H    0.004543  -0.045528   0.354002  -0.041241   0.000458   0.004548
    18  H   -0.045528   0.004543   0.000458   0.004548   0.354002  -0.041241
    19  H    0.000018   0.000146  -0.007800  -0.041548  -0.000190   0.004276
    20  H    0.000146   0.000018  -0.000190   0.004276  -0.007800  -0.041548
    21  H    0.000000   0.000000  -0.000003   0.000167   0.000000   0.000014
    22  H    0.000000   0.000000   0.000000   0.000003   0.000000  -0.000001
    23  H    0.000000   0.000000   0.000000  -0.000001   0.000000   0.000003
    24  H    0.000000   0.000000   0.000000   0.000014  -0.000003   0.000167
              7          8          9         10         11         12
     1  C   -0.000626   0.000030   0.007858  -0.000296   0.000000   0.000000
     2  C    0.007858  -0.000296  -0.000626   0.000030   0.000002   0.000000
     3  C   -0.085097   0.007277   0.015333  -0.000198  -0.000213   0.000002
     4  C    0.398122   0.011488  -0.021224  -0.033581   0.007277  -0.000296
     5  C    0.015333  -0.000198  -0.085097   0.007277  -0.000006   0.000000
     6  C   -0.021224  -0.033581   0.398122   0.011488  -0.000198   0.000030
     7  C    5.451470   0.398117  -0.112500  -0.021223  -0.085097   0.007858
     8  C    0.398117   4.736414  -0.021223   0.460997   0.434093  -0.004634
     9  C   -0.112500  -0.021223   5.451470   0.398117   0.015333  -0.000626
    10  C   -0.021223   0.460997   0.398117   4.736414  -0.029680  -0.036947
    11  C   -0.085097   0.434093   0.015333  -0.029680   5.078564   0.536991
    12  C    0.007858  -0.004634  -0.000626  -0.036947   0.536991   4.907149
    13  C   -0.000626  -0.036947   0.007858  -0.004634  -0.021749   0.477326
    14  C    0.015333  -0.029680  -0.085097   0.434093  -0.065567  -0.021749
    15  H    0.000010  -0.000001  -0.000201   0.000003   0.000000   0.000000
    16  H   -0.000201   0.000003   0.000010  -0.000001   0.000000   0.000000
    17  H   -0.008354   0.000167  -0.000177   0.000014  -0.000003   0.000000
    18  H   -0.000177   0.000014  -0.008354   0.000167   0.000000   0.000000
    19  H    0.346878  -0.041549   0.000525   0.004276  -0.007800   0.000146
    20  H    0.000525   0.004276   0.346878  -0.041549  -0.000190   0.000018
    21  H   -0.008354  -0.041241  -0.000177   0.004548   0.354002  -0.045528
    22  H   -0.000201   0.002775   0.000010   0.000964  -0.036341   0.356913
    23  H    0.000010   0.000964  -0.000201   0.002775   0.004173  -0.041348
    24  H   -0.000177   0.004548  -0.008354  -0.041241   0.000458   0.004543
             13         14         15         16         17         18
     1  C    0.000000   0.000002   0.356913  -0.041348   0.004543  -0.045528
     2  C    0.000000   0.000000  -0.041348   0.356913  -0.045528   0.004543
     3  C    0.000000  -0.000006   0.004173  -0.036341   0.354002   0.000458
     4  C    0.000030  -0.000198   0.000964   0.002775  -0.041241   0.004548
     5  C    0.000002  -0.000213  -0.036341   0.004173   0.000458   0.354002
     6  C   -0.000296   0.007277   0.002775   0.000964   0.004548  -0.041241
     7  C   -0.000626   0.015333   0.000010  -0.000201  -0.008354  -0.000177
     8  C   -0.036947  -0.029680  -0.000001   0.000003   0.000167   0.000014
     9  C    0.007858  -0.085097  -0.000201   0.000010  -0.000177  -0.008354
    10  C   -0.004634   0.434093   0.000003  -0.000001   0.000014   0.000167
    11  C   -0.021749  -0.065567   0.000000   0.000000  -0.000003   0.000000
    12  C    0.477326  -0.021749   0.000000   0.000000   0.000000   0.000000
    13  C    4.907149   0.536991   0.000000   0.000000   0.000000   0.000000
    14  C    0.536991   5.078564   0.000000   0.000000   0.000000  -0.000003
    15  H    0.000000   0.000000   0.593348  -0.004706  -0.000184  -0.005594
    16  H    0.000000   0.000000  -0.004706   0.593348  -0.005594  -0.000184
    17  H    0.000000   0.000000  -0.000184  -0.005594   0.600864   0.000019
    18  H    0.000000  -0.000003  -0.005594  -0.000184   0.000019   0.600864
    19  H    0.000018  -0.000190   0.000000  -0.000012   0.006629   0.000003
    20  H    0.000146  -0.007800  -0.000012   0.000000   0.000003   0.006629
    21  H    0.004543   0.000458   0.000000   0.000000   0.000002   0.000000
    22  H   -0.041348   0.004173   0.000000   0.000000   0.000000   0.000000
    23  H    0.356913  -0.036341   0.000000   0.000000   0.000000   0.000000
    24  H   -0.045528   0.354002   0.000000   0.000000   0.000000   0.000002
             19         20         21         22         23         24
     1  C    0.000018   0.000146   0.000000   0.000000   0.000000   0.000000
     2  C    0.000146   0.000018   0.000000   0.000000   0.000000   0.000000
     3  C   -0.007800  -0.000190  -0.000003   0.000000   0.000000   0.000000
     4  C   -0.041548   0.004276   0.000167   0.000003  -0.000001   0.000014
     5  C   -0.000190  -0.007800   0.000000   0.000000   0.000000  -0.000003
     6  C    0.004276  -0.041548   0.000014  -0.000001   0.000003   0.000167
     7  C    0.346878   0.000525  -0.008354  -0.000201   0.000010  -0.000177
     8  C   -0.041549   0.004276  -0.041241   0.002775   0.000964   0.004548
     9  C    0.000525   0.346878  -0.000177   0.000010  -0.000201  -0.008354
    10  C    0.004276  -0.041549   0.004548   0.000964   0.002775  -0.041241
    11  C   -0.007800  -0.000190   0.354002  -0.036341   0.004173   0.000458
    12  C    0.000146   0.000018  -0.045528   0.356913  -0.041348   0.004543
    13  C    0.000018   0.000146   0.004543  -0.041348   0.356913  -0.045528
    14  C   -0.000190  -0.007800   0.000458   0.004173  -0.036341   0.354002
    15  H    0.000000  -0.000012   0.000000   0.000000   0.000000   0.000000
    16  H   -0.000012   0.000000   0.000000   0.000000   0.000000   0.000000
    17  H    0.006629   0.000003   0.000002   0.000000   0.000000   0.000000
    18  H    0.000003   0.006629   0.000000   0.000000   0.000000   0.000002
    19  H    0.600514   0.000025   0.006629  -0.000012   0.000000   0.000003
    20  H    0.000025   0.600514   0.000003   0.000000  -0.000012   0.006629
    21  H    0.006629   0.000003   0.600864  -0.005594  -0.000184   0.000019
    22  H   -0.000012   0.000000  -0.005594   0.593348  -0.004706  -0.000184
    23  H    0.000000  -0.000012  -0.000184  -0.004706   0.593348  -0.005594
    24  H    0.000003   0.006629   0.000019  -0.000184  -0.005594   0.600864
 Mulliken atomic charges:
              1
     1  C   -0.139848
     2  C   -0.139848
     3  C   -0.184050
     4  C    0.148189
     5  C   -0.184050
     6  C    0.148189
     7  C   -0.297661
     8  C    0.148188
     9  C   -0.297661
    10  C    0.148188
    11  C   -0.184051
    12  C   -0.139849
    13  C   -0.139849
    14  C   -0.184051
    15  H    0.130199
    16  H    0.130199
    17  H    0.129833
    18  H    0.129833
    19  H    0.129017
    20  H    0.129017
    21  H    0.129833
    22  H    0.130199
    23  H    0.130199
    24  H    0.129833
 Sum of Mulliken atomic charges =   0.00000
 Mulliken charges with hydrogens summed into heavy atoms:
              1
     1  C   -0.009649
     2  C   -0.009649
     3  C   -0.054217
     4  C    0.148189
     5  C   -0.054217
     6  C    0.148189
     7  C   -0.168644
     8  C    0.148188
     9  C   -0.168644
    10  C    0.148188
    11  C   -0.054218
    12  C   -0.009650
    13  C   -0.009650
    14  C   -0.054218
 Sum of Mulliken charges with hydrogens summed into heavy atoms =   0.00000
 Electronic spatial extent (au):  <R**2>=           2860.6155
 Charge=              0.0000 electrons
 Dipole moment (field-independent basis, Debye):
    X=              0.0000    Y=              0.0000    Z=              0.0000  Tot=              0.0000
 Quadrupole moment (field-independent basis, Debye-Ang):
   XX=            -69.7211   YY=            -70.6206   ZZ=            -85.7919
   XY=              0.0000   XZ=              0.0000   YZ=              0.0000
 Traceless Quadrupole moment (field-independent basis, Debye-Ang):
   XX=              5.6568   YY=              4.7572   ZZ=            -10.4140
   XY=              0.0000   XZ=              0.0000   YZ=              0.0000
 Octapole moment (field-independent basis, Debye-Ang**2):
  XXX=              0.0004  YYY=              0.0000  ZZZ=              0.0000  XYY=              0.0000
  XXY=              0.0000  XXZ=              0.0000  XZZ=              0.0001  YZZ=              0.0000
  YYZ=              0.0000  XYZ=              0.0000
 Hexadecapole moment (field-independent basis, Debye-Ang**3):
 XXXX=          -2799.2769 YYYY=           -690.0829 ZZZZ=            -89.0689 XXXY=              0.0000
 XXXZ=              0.0000 YYYX=              0.0000 YYYZ=              0.0000 ZZZX=              0.0000
 ZZZY=              0.0000 XXYY=           -593.6260 XXZZ=           -588.8951 YYZZ=           -153.5845
 XXYZ=              0.0000 YYXZ=              0.0000 ZZXY=              0.0000
 N-N= 7.652182974857D+02 E-N=-2.779349871336D+03  KE= 5.342623354122D+02
 Calling FoFJK, ICntrl=      5127 FMM=F ISym2X=0 I1Cent= 0 IOpClX= 0 NMat=1 NMatS=1 NMatT=0.
 -------------------------------------------------------------------
 Center     Atomic                   Forces (Hartrees/Bohr)
 Number     Number              X              Y              Z
 -------------------------------------------------------------------
      1        6           0.028089607    0.035110927    0.000000000
      2        6           0.028089607   -0.035110927    0.000000000
      3        6          -0.034917966    0.006427559    0.000000000
      4        6           0.020977285   -0.001989987    0.000000000
      5        6          -0.034917966   -0.006427559    0.000000000
      6        6           0.020977285    0.001989987    0.000000000
      7        6          -0.000004831    0.005711044    0.000000000
      8        6          -0.020967328   -0.001989997    0.000000000
      9        6          -0.000004831   -0.005711044    0.000000000
     10        6          -0.020967328    0.001989997    0.000000000
     11        6           0.034913728    0.006429518    0.000000000
     12        6          -0.028090390   -0.035111417    0.000000000
     13        6          -0.028090390    0.035111417    0.000000000
     14        6           0.034913728   -0.006429518    0.000000000
     15        1           0.000066850    0.000564486    0.000000000
     16        1           0.000066850   -0.000564486    0.000000000
     17        1          -0.000256962   -0.000106339    0.000000000
     18        1          -0.000256962    0.000106339    0.000000000
     19        1          -0.000000028   -0.000053876    0.000000000
     20        1          -0.000000028    0.000053876    0.000000000
     21        1           0.000256933   -0.000106304    0.000000000
     22        1          -0.000066900   -0.000564547    0.000000000
     23        1          -0.000066900    0.000564547    0.000000000
     24        1           0.000256933    0.000106304    0.000000000
 -------------------------------------------------------------------
 Cartesian Forces:  Max     0.035111417 RMS     0.014419879

 GradGradGradGradGradGradGradGradGradGradGradGradGradGradGradGradGradGrad
 Berny optimization.
 Search for a local minimum.
 Step number   1 out of a maximum of    2
 All quantities printed in internal units (Hartrees-Bohrs-Radians)
 Second derivative matrix not updated -- first step.
     Eigenvalues ---    0.00230   0.00239   0.00990   0.00997   0.01098
     Eigenvalues ---    0.01611   0.02507   0.02556   0.02683   0.02895
     Eigenvalues ---    0.02976   0.03496   0.05148   0.05360   0.06963
     Eigenvalues ---    0.06987   0.07005   0.07083   0.07689   0.07712
     Eigenvalues ---    0.08127   0.08694   0.09061   0.10339   0.11194
     Eigenvalues ---    0.11301   0.11626   0.12594   0.13528   0.15476
     Eigenvalues ---    0.15615   0.19942   0.23710   0.23979   0.27203
     Eigenvalues ---    0.30167   0.33080   0.34784   0.34969   0.34985
     Eigenvalues ---    0.37466   0.38056   0.42710   0.43824   0.48224
     Eigenvalues ---    0.55137   0.59147   0.65471   0.73209   0.75458
     Eigenvalues ---    0.77844   0.98316   1.03394   1.10499   1.13889
     Eigenvalues ---    1.21564   1.25453   1.27986   1.35316   1.42782
     Eigenvalues ---    1.42869   1.47183   1.57953   1.61303   1.63355
     Eigenvalues ---    1.74142
 Angle between quadratic step and forces=  66.36 degrees.
 Linear search not attempted -- first point.
 TrRot=  0.000001  0.000000  0.000000  0.000000  0.000000  0.000000
 Variable       Old X    -DE/DX   Delta X   Delta X   Delta X     New X
                                 (Linear)    (Quad)   (Total)
    X1        6.91744   0.02809   0.00000   0.08590   0.08590   7.00334
    Y1       -1.34790   0.03511   0.00000   0.02722   0.02722  -1.32068
    Z1        0.00000   0.00000   0.00000   0.00000   0.00000   0.00000
    X2        6.91744   0.02809   0.00000   0.08590   0.08590   7.00334
    Y2        1.34790  -0.03511   0.00000  -0.02722  -0.02722   1.32068
    Z2        0.00000   0.00000   0.00000   0.00000   0.00000   0.00000
    X3        4.68561  -0.03492   0.00000   0.01946   0.01946   4.70508
    Y3        2.65928   0.00643   0.00000  -0.02069  -0.02069   2.63859
    Z3        0.00000   0.00000   0.00000   0.00000   0.00000   0.00000
    X4        2.31274   0.02098   0.00000   0.03848   0.03848   2.35122
    Y4        1.36544  -0.00199   0.00000  -0.00762  -0.00762   1.35782
    Z4        0.00000   0.00000   0.00000   0.00000   0.00000   0.00000
    X5        4.68561  -0.03492   0.00000   0.01946   0.01946   4.70508
    Y5       -2.65928  -0.00643   0.00000   0.02069   0.02069  -2.63859
    Z5        0.00000   0.00000   0.00000   0.00000   0.00000   0.00000
    X6        2.31274   0.02098   0.00000   0.03848   0.03848   2.35122
    Y6       -1.36544   0.00199   0.00000   0.00762   0.00762  -1.35782
    Z6        0.00000   0.00000   0.00000   0.00000   0.00000   0.00000
    X7        0.00000   0.00000   0.00000   0.00000   0.00000   0.00000
    Y7        2.65240   0.00571   0.00000  -0.01546  -0.01546   2.63694
    Z7        0.00000   0.00000   0.00000   0.00000   0.00000   0.00000
    X8       -2.31276  -0.02097   0.00000  -0.03847  -0.03847  -2.35123
    Y8        1.36544  -0.00199   0.00000  -0.00762  -0.00762   1.35782
    Z8        0.00000   0.00000   0.00000   0.00000   0.00000   0.00000
    X9        0.00000   0.00000   0.00000   0.00000   0.00000   0.00000
    Y9       -2.65240  -0.00571   0.00000   0.01546   0.01546  -2.63694
    Z9        0.00000   0.00000   0.00000   0.00000   0.00000   0.00000
   X10       -2.31276  -0.02097   0.00000  -0.03847  -0.03847  -2.35123
   Y10       -1.36544   0.00199   0.00000   0.00762   0.00762  -1.35782
   Z10        0.00000   0.00000   0.00000   0.00000   0.00000   0.00000
   X11       -4.68561   0.03491   0.00000  -0.01947  -0.01946  -4.70508
   Y11        2.65928   0.00643   0.00000  -0.02069  -0.02069   2.63859
   Z11        0.00000   0.00000   0.00000   0.00000   0.00000   0.00000
   X12       -6.91744  -0.02809   0.00000  -0.08590  -0.08590  -7.00334
   Y12        1.34790  -0.03511   0.00000  -0.02722  -0.02722   1.32068
   Z12        0.00000   0.00000   0.00000   0.00000   0.00000   0.00000
   X13       -6.91744  -0.02809   0.00000  -0.08590  -0.08590  -7.00334
   Y13       -1.34790   0.03511   0.00000   0.02722   0.02722  -1.32068
   Z13        0.00000   0.00000   0.00000   0.00000   0.00000   0.00000
   X14       -4.68561   0.03491   0.00000  -0.01947  -0.01946  -4.70508
   Y14       -2.65928  -0.00643   0.00000   0.02069   0.02069  -2.63859
   Z14        0.00000   0.00000   0.00000   0.00000   0.00000   0.00000
   X15        8.70680   0.00007   0.00000   0.08330   0.08330   8.79010
   Y15       -2.35541   0.00056   0.00000   0.02386   0.02386  -2.33155
   Z15        0.00000   0.00000   0.00000   0.00000   0.00000   0.00000
   X16        8.70680   0.00007   0.00000   0.08330   0.08330   8.79010
   Y16        2.35541  -0.00056   0.00000  -0.02386  -0.02386   2.33155
   Z16        0.00000   0.00000   0.00000   0.00000   0.00000   0.00000
   X17        4.67974  -0.00026   0.00000   0.00584   0.00584   4.68558
   Y17        4.71447  -0.00011   0.00000  -0.02103  -0.02103   4.69344
   Z17        0.00000   0.00000   0.00000   0.00000   0.00000   0.00000
   X18        4.67974  -0.00026   0.00000   0.00584   0.00584   4.68558
   Y18       -4.71447   0.00011   0.00000   0.02103   0.02103  -4.69344
   Z18        0.00000   0.00000   0.00000   0.00000   0.00000   0.00000
   X19        0.00000   0.00000   0.00000   0.00000   0.00000   0.00000
   Y19        4.70912  -0.00005   0.00000  -0.01561  -0.01561   4.69351
   Z19        0.00000   0.00000   0.00000   0.00000   0.00000   0.00000
   X20        0.00000   0.00000   0.00000   0.00000   0.00000   0.00000
   Y20       -4.70912   0.00005   0.00000   0.01561   0.01561  -4.69351
   Z20        0.00000   0.00000   0.00000   0.00000   0.00000   0.00000
   X21       -4.67974   0.00026   0.00000  -0.00585  -0.00585  -4.68558
   Y21        4.71447  -0.00011   0.00000  -0.02103  -0.02103   4.69344
   Z21        0.00000   0.00000   0.00000   0.00000   0.00000   0.00000
   X22       -8.70680  -0.00007   0.00000  -0.08330  -0.08330  -8.79010
   Y22        2.35541  -0.00056   0.00000  -0.02386  -0.02386   2.33155
   Z22        0.00000   0.00000   0.00000   0.00000   0.00000   0.00000
   X23       -8.70680  -0.00007   0.00000  -0.08330  -0.08330  -8.79010
   Y23       -2.35541   0.00056   0.00000   0.02386   0.02386  -2.33155
   Z23        0.00000   0.00000   0.00000   0.00000   0.00000   0.00000
   X24       -4.67974   0.00026   0.00000  -0.00585  -0.00585  -4.68558
   Y24       -4.71447   0.00011   0.00000   0.02103   0.02103  -4.69344
   Z24        0.00000   0.00000   0.00000   0.00000   0.00000   0.00000
         Item               Value     Threshold  Converged?
 Maximum Force            0.035111     0.000450     NO 
 RMS     Force            0.014420     0.000300     NO 
 Maximum Displacement     0.085903     0.001800     NO 
 RMS     Displacement     0.032224     0.001200     NO 
 Predicted change in Energy=-6.708452D-03
 GradGradGradGradGradGradGradGradGradGradGradGradGradGradGradGradGradGrad

 1\1\GINC-CLODOMIRA\Force\RTD-B3LYP-FC\6-31G(d)\C14H10\DIEGOA\08-Oct-20
 19\0\\# b3lyp/6-31G(d) TD(root=1) Force nosymm\\Title\\0,1\C,3.66055,-
 0.71328,0.\C,3.66055,0.71328,0.\C,2.47952,1.40723,0.\C,1.22385,0.72256
 ,0.\C,2.47952,-1.40723,0.\C,1.22385,-0.72256,0.\C,0.,1.40359,0.\C,-1.2
 2386,0.72256,0.\C,0.,-1.40359,0.\C,-1.22386,-0.72256,0.\C,-2.47952,1.4
 0723,0.\C,-3.66055,0.71328,0.\C,-3.66055,-0.71328,0.\C,-2.47952,-1.407
 23,0.\H,4.60744,-1.24643,0.\H,4.60744,1.24643,0.\H,2.47641,2.49479,0.\
 H,2.47641,-2.49479,0.\H,0.,2.49196,0.\H,0.,-2.49196,0.\H,-2.47641,2.49
 479,0.\H,-4.60744,1.24643,0.\H,-4.60744,-1.24643,0.\H,-2.47641,-2.4947
 9,0.\\Version=EM64L-G09RevA.01\HF=-539.5305232\RMSD=8.658e-09\RMSF=1.4
 42e-02\Dipole=0.0000059,0.,0.\PG=C02V [SGV(C14H10)]\\@


 ...THE PHYSICISTS HAVE MADE THEIR UNIVERSE, AND IF YOU DO NOT LIKE
 IT, YOU MUST MAKE YOUR OWN.
                               -- E. R. HARRISON IN "COSMOLOGY" (1980)
 Job cpu time:  0 days  0 hours 22 minutes 23.3 seconds.
 File lengths (MBytes):  RWF=     90 Int=      0 D2E=      0 Chk=     13 Scr=      1
 Normal termination of Gaussian 09 at Tue Oct  8 20:06:05 2019.
