 Entering Gaussian System, Link 0=g09
 Input=freq.com
 Output=freq.log
 Initial command:
 /home/diegoa/progs/g09/l1.exe /home/diegoa/g09scratch/Gau-19153.inp -scrdir=/home/diegoa/g09scratch/
 Default is to use a total of   4 processors:
                                4 via shared-memory
                                1 via Linda
 Entering Link 1 = /home/diegoa/progs/g09/l1.exe PID=     19156.
  
 Copyright (c) 1988,1990,1992,1993,1995,1998,2003,2009, Gaussian, Inc.
                  All Rights Reserved.
  
 This is part of the Gaussian(R) 09 program.  It is based on
 the Gaussian(R) 03 system (copyright 2003, Gaussian, Inc.),
 the Gaussian(R) 98 system (copyright 1998, Gaussian, Inc.),
 the Gaussian(R) 94 system (copyright 1995, Gaussian, Inc.),
 the Gaussian 92(TM) system (copyright 1992, Gaussian, Inc.),
 the Gaussian 90(TM) system (copyright 1990, Gaussian, Inc.),
 the Gaussian 88(TM) system (copyright 1988, Gaussian, Inc.),
 the Gaussian 86(TM) system (copyright 1986, Carnegie Mellon
 University), and the Gaussian 82(TM) system (copyright 1983,
 Carnegie Mellon University). Gaussian is a federally registered
 trademark of Gaussian, Inc.
  
 This software contains proprietary and confidential information,
 including trade secrets, belonging to Gaussian, Inc.
  
 This software is provided under written license and may be
 used, copied, transmitted, or stored only in accord with that
 written license.
  
 The following legend is applicable only to US Government
 contracts under FAR:
  
                    RESTRICTED RIGHTS LEGEND
  
 Use, reproduction and disclosure by the US Government is
 subject to restrictions as set forth in subparagraphs (a)
 and (c) of the Commercial Computer Software - Restricted
 Rights clause in FAR 52.227-19.
  
 Gaussian, Inc.
 340 Quinnipiac St., Bldg. 40, Wallingford CT 06492
  
  
 ---------------------------------------------------------------
 Warning -- This program may not be used in any manner that
 competes with the business of Gaussian, Inc. or will provide
 assistance to any competitor of Gaussian, Inc.  The licensee
 of this program is prohibited from giving any competitor of
 Gaussian, Inc. access to this program.  By using this program,
 the user acknowledges that Gaussian, Inc. is engaged in the
 business of creating and licensing software in the field of
 computational chemistry and represents and warrants to the
 licensee that it is not a competitor of Gaussian, Inc. and that
 it will not use this program in any manner prohibited above.
 ---------------------------------------------------------------
  

 Cite this work as:
 Gaussian 09, Revision A.01,
 M. J. Frisch, G. W. Trucks, H. B. Schlegel, G. E. Scuseria, 
 M. A. Robb, J. R. Cheeseman, G. Scalmani, V. Barone, B. Mennucci, 
 G. A. Petersson, H. Nakatsuji, M. Caricato, X. Li, H. P. Hratchian, 
 A. F. Izmaylov, J. Bloino, G. Zheng, J. L. Sonnenberg, M. Hada, 
 M. Ehara, K. Toyota, R. Fukuda, J. Hasegawa, M. Ishida, T. Nakajima, 
 Y. Honda, O. Kitao, H. Nakai, T. Vreven, J. A. Montgomery, Jr., 
 J. E. Peralta, F. Ogliaro, M. Bearpark, J. J. Heyd, E. Brothers, 
 K. N. Kudin, V. N. Staroverov, R. Kobayashi, J. Normand, 
 K. Raghavachari, A. Rendell, J. C. Burant, S. S. Iyengar, J. Tomasi, 
 M. Cossi, N. Rega, J. M. Millam, M. Klene, J. E. Knox, J. B. Cross, 
 V. Bakken, C. Adamo, J. Jaramillo, R. Gomperts, R. E. Stratmann, 
 O. Yazyev, A. J. Austin, R. Cammi, C. Pomelli, J. W. Ochterski, 
 R. L. Martin, K. Morokuma, V. G. Zakrzewski, G. A. Voth, 
 P. Salvador, J. J. Dannenberg, S. Dapprich, A. D. Daniels, 
 O. Farkas, J. B. Foresman, J. V. Ortiz, J. Cioslowski, 
 and D. J. Fox, Gaussian, Inc., Wallingford CT, 2009.
 
 ******************************************
 Gaussian 09:  EM64L-G09RevA.01  8-May-2009
                22-Oct-2019 
 ******************************************
 %chk=freq.chk
 %NProcShared=4
 Will use up to    4 processors via shared memory.
 Default route:  MP2=Direct MaxDisk=1000GB DenFit
 --------------------------------------------------------
 # cam-b3lyp/aug-cc-pvtz opt Freq=(savenormalmodes,raman)
 --------------------------------------------------------
 1/14=-1,18=20,19=15,26=3,38=1/1,3;
 2/9=110,12=2,17=6,18=5,40=1/2;
 3/5=16,6=1,7=10,11=2,16=1,25=1,30=1,71=1,74=-40,82=47/1,2,3;
 4//1;
 5/5=2,38=5/2;
 6/7=2,8=2,9=2,10=2,28=1/1;
 7/92=1/1,2,3,16;
 1/14=-1,18=20,19=15/3(2);
 2/9=110/2;
 99//99;
 2/9=110/2;
 3/5=16,6=1,7=10,11=2,16=1,25=1,30=1,71=1,74=-40,82=47/1,2,3;
 4/5=5,16=3/1;
 5/5=2,38=5/2;
 7/92=1/1,2,3,16;
 1/14=-1,18=20,19=15/3(-5);
 2/9=110/2;
 6/7=2,8=2,9=2,10=2,19=2,28=1/1;
 99/9=1/99;
 -----
 Title
 -----
 Symbolic Z-matrix:
 Charge =  0 Multiplicity = 1
 6                    -0.15359   0.38985  -0.00012 
 7                     1.08781  -0.15869  -0.00009 
 8                    -1.18865  -0.23917   0.00005 
 1                     1.17741  -1.1643    0.00018 
 1                     1.92007   0.4088    0.00031 
 1                    -0.12309   1.49569   0.00006 
 

 GradGradGradGradGradGradGradGradGradGradGradGradGradGradGradGradGradGrad
 Berny optimization.
 Initialization pass.
                           ----------------------------
                           !    Initial Parameters    !
                           ! (Angstroms and Degrees)  !
 --------------------------                            --------------------------
 ! Name  Definition              Value          Derivative Info.                !
 --------------------------------------------------------------------------------
 ! R1    R(1,2)                  1.3572         estimate D2E/DX2                !
 ! R2    R(1,3)                  1.2112         estimate D2E/DX2                !
 ! R3    R(1,6)                  1.1063         estimate D2E/DX2                !
 ! R4    R(2,4)                  1.0096         estimate D2E/DX2                !
 ! R5    R(2,5)                  1.0073         estimate D2E/DX2                !
 ! A1    A(2,1,3)              124.8735         estimate D2E/DX2                !
 ! A2    A(2,1,6)              112.2593         estimate D2E/DX2                !
 ! A3    A(3,1,6)              122.8671         estimate D2E/DX2                !
 ! A4    A(1,2,4)              118.9303         estimate D2E/DX2                !
 ! A5    A(1,2,5)              121.872          estimate D2E/DX2                !
 ! A6    A(4,2,5)              119.1976         estimate D2E/DX2                !
 ! D1    D(3,1,2,4)             -0.0064         estimate D2E/DX2                !
 ! D2    D(3,1,2,5)           -179.9636         estimate D2E/DX2                !
 ! D3    D(6,1,2,4)            179.9728         estimate D2E/DX2                !
 ! D4    D(6,1,2,5)              0.0155         estimate D2E/DX2                !
 --------------------------------------------------------------------------------
 Trust Radius=3.00D-01 FncErr=1.00D-07 GrdErr=1.00D-06
 Number of steps in this run=  25 maximum allowed number of steps= 100.
 GradGradGradGradGradGradGradGradGradGradGradGradGradGradGradGradGradGrad

                          Input orientation:                          
 ---------------------------------------------------------------------
 Center     Atomic      Atomic             Coordinates (Angstroms)
 Number     Number       Type             X           Y           Z
 ---------------------------------------------------------------------
      1          6           0       -0.153588    0.389845   -0.000116
      2          7           0        1.087813   -0.158690   -0.000092
      3          8           0       -1.188645   -0.239167    0.000052
      4          1           0        1.177406   -1.164300    0.000175
      5          1           0        1.920074    0.408803    0.000305
      6          1           0       -0.123090    1.495692    0.000063
 ---------------------------------------------------------------------
                    Distance matrix (angstroms):
                    1          2          3          4          5
     1  C    0.000000
     2  N    1.357191   0.000000
     3  O    1.211197   2.277880   0.000000
     4  H    2.046194   1.009593   2.540486   0.000000
     5  H    2.073749   1.007327   3.175531   1.739600   0.000000
     6  H    1.106267   2.050187   2.035962   2.960886   2.314270
                    6
     6  H    0.000000
 Stoichiometry    CH3NO
 Framework group  C1[X(CH3NO)]
 Deg. of freedom    12
 Full point group                 C1      NOp   1
 Largest Abelian subgroup         C1      NOp   1
 Largest concise Abelian subgroup C1      NOp   1
                         Standard orientation:                         
 ---------------------------------------------------------------------
 Center     Atomic      Atomic             Coordinates (Angstroms)
 Number     Number       Type             X           Y           Z
 ---------------------------------------------------------------------
      1          6           0       -0.161453    0.387024   -0.000100
      2          7           0        1.081733   -0.157452   -0.000076
      3          8           0       -1.194449   -0.245367    0.000068
      4          1           0        1.174611   -1.162764    0.000191
      5          1           0        1.912136    0.412757    0.000321
      6          1           0       -0.134568    1.492965    0.000079
 ---------------------------------------------------------------------
 Rotational constants (GHZ):     73.6451615     11.3730058      9.8516222
 Standard basis: Aug-CC-pVTZ (5D, 7F)
 There are   207 symmetry adapted basis functions of A   symmetry.
 Integral buffers will be    131072 words long.
 Raffenetti 2 integral format.
 Two-electron integral symmetry is turned on.
   207 basis functions,   297 primitive gaussians,   240 cartesian basis functions
    12 alpha electrons       12 beta electrons
       nuclear repulsion energy        71.2532654932 Hartrees.
 NAtoms=    6 NActive=    6 NUniq=    6 SFac= 7.50D-01 NAtFMM=   80 NAOKFM=F Big=F
 Standard density basis: Auto (5D, 7F)
   591 Density fitting functions
 There are   591 symmetry adapted density basis functions of A   symmetry.
 One-electron integrals computed using PRISM.
 NBasis=   207 RedAO= T  NBF=   207
 NBsUse=   207 1.00D-06 NBFU=   207
 Harris functional with IExCor=20419 diagonalized for initial guess.
 ExpMin= 2.53D-02 ExpMax= 1.53D+04 ExpMxC= 5.22D+02 IAcc=3 IRadAn=         0 AccDes= 0.00D+00
 HarFok:  IExCor=20419 AccDes= 0.00D+00 IRadAn=         0 IDoV= 1
 ScaDFX=  1.000000  1.000000  1.000000  1.000000
 FoFCou: FMM=F IPFlag=           0 FMFlag=      100000 FMFlg1=           0
         NFxFlg=           0 DoJE=T BraDBF=F KetDBF=T FulRan=T
         Omega=  0.000000  0.000000  1.000000  0.000000  0.000000 ICntrl=     500 IOpCl=  0
         NMat0=    1 NMatS0=    1 NMatT0=    0 NMatD0=    1 NMtDS0=    0 NMtDT0=    0
         I1Cent=           4 NGrid=           0.
 Petite list used in FoFCou.
 Initial guess orbital symmetries:
       Occupied  (A) (A) (A) (A) (A) (A) (A) (A) (A) (A) (A) (A)
       Virtual   (A) (A) (A) (A) (A) (A) (A) (A) (A) (A) (A) (A)
                 (A) (A) (A) (A) (A) (A) (A) (A) (A) (A) (A) (A)
                 (A) (A) (A) (A) (A) (A) (A) (A) (A) (A) (A) (A)
                 (A) (A) (A) (A) (A) (A) (A) (A) (A) (A) (A) (A)
                 (A) (A) (A) (A) (A) (A) (A) (A) (A) (A) (A) (A)
                 (A) (A) (A) (A) (A) (A) (A) (A) (A) (A) (A) (A)
                 (A) (A) (A) (A) (A) (A) (A) (A) (A) (A) (A) (A)
                 (A) (A) (A) (A) (A) (A) (A) (A) (A) (A) (A) (A)
                 (A) (A) (A) (A) (A) (A) (A) (A) (A) (A) (A) (A)
                 (A) (A) (A) (A) (A) (A) (A) (A) (A) (A) (A) (A)
                 (A) (A) (A) (A) (A) (A) (A) (A) (A) (A) (A) (A)
                 (A) (A) (A) (A) (A) (A) (A) (A) (A) (A) (A) (A)
                 (A) (A) (A) (A) (A) (A) (A) (A) (A) (A) (A) (A)
                 (A) (A) (A) (A) (A) (A) (A) (A) (A) (A) (A) (A)
                 (A) (A) (A) (A) (A) (A) (A) (A) (A) (A) (A) (A)
                 (A) (A) (A) (A) (A) (A) (A) (A) (A) (A) (A) (A)
                 (A) (A) (A)
 The electronic state of the initial guess is 1-A.
 Requested convergence on RMS density matrix=1.00D-08 within 128 cycles.
 Requested convergence on MAX density matrix=1.00D-06.
 Requested convergence on             energy=1.00D-06.
 No special actions if energy rises.
 FoFJK:  IHMeth= 1 ICntrl=     0 DoSepK=T KAlg= 1 I1Cent= 0 FoldK=F
 FoFJK:  IHMeth= 1 ICntrl=     0 DoSepK=T KAlg= 1 I1Cent= 0 FoldK=F
 FoFJK:  IHMeth= 1 ICntrl=     0 DoSepK=T KAlg= 1 I1Cent= 0 FoldK=F
 FoFJK:  IHMeth= 1 ICntrl=     0 DoSepK=T KAlg= 1 I1Cent= 0 FoldK=F
 FoFJK:  IHMeth= 1 ICntrl=     0 DoSepK=T KAlg= 1 I1Cent= 0 FoldK=F
 FoFJK:  IHMeth= 1 ICntrl=     0 DoSepK=T KAlg= 1 I1Cent= 0 FoldK=F
 FoFJK:  IHMeth= 1 ICntrl=     0 DoSepK=T KAlg= 1 I1Cent= 0 FoldK=F
 FoFJK:  IHMeth= 1 ICntrl=     0 DoSepK=T KAlg= 1 I1Cent= 0 FoldK=F
 FoFJK:  IHMeth= 1 ICntrl=     0 DoSepK=T KAlg= 1 I1Cent= 0 FoldK=F
 FoFJK:  IHMeth= 1 ICntrl=     0 DoSepK=T KAlg= 1 I1Cent= 0 FoldK=F
 FoFJK:  IHMeth= 1 ICntrl=     0 DoSepK=T KAlg= 1 I1Cent= 0 FoldK=F
 SCF Done:  E(RCAM-B3LYP) =  -169.897648401     A.U. after   11 cycles
             Convg  =    0.3193D-08             -V/T =  2.0058

 **********************************************************************

            Population analysis using the SCF density.

 **********************************************************************

 Orbital symmetries:
       Occupied  (A) (A) (A) (A) (A) (A) (A) (A) (A) (A) (A) (A)
       Virtual   (A) (A) (A) (A) (A) (A) (A) (A) (A) (A) (A) (A)
                 (A) (A) (A) (A) (A) (A) (A) (A) (A) (A) (A) (A)
                 (A) (A) (A) (A) (A) (A) (A) (A) (A) (A) (A) (A)
                 (A) (A) (A) (A) (A) (A) (A) (A) (A) (A) (A) (A)
                 (A) (A) (A) (A) (A) (A) (A) (A) (A) (A) (A) (A)
                 (A) (A) (A) (A) (A) (A) (A) (A) (A) (A) (A) (A)
                 (A) (A) (A) (A) (A) (A) (A) (A) (A) (A) (A) (A)
                 (A) (A) (A) (A) (A) (A) (A) (A) (A) (A) (A) (A)
                 (A) (A) (A) (A) (A) (A) (A) (A) (A) (A) (A) (A)
                 (A) (A) (A) (A) (A) (A) (A) (A) (A) (A) (A) (A)
                 (A) (A) (A) (A) (A) (A) (A) (A) (A) (A) (A) (A)
                 (A) (A) (A) (A) (A) (A) (A) (A) (A) (A) (A) (A)
                 (A) (A) (A) (A) (A) (A) (A) (A) (A) (A) (A) (A)
                 (A) (A) (A) (A) (A) (A) (A) (A) (A) (A) (A) (A)
                 (A) (A) (A) (A) (A) (A) (A) (A) (A) (A) (A) (A)
                 (A) (A) (A) (A) (A) (A) (A) (A) (A) (A) (A) (A)
                 (A) (A) (A)
 The electronic state is 1-A.
 Alpha  occ. eigenvalues --  -19.18056 -14.42830 -10.36045  -1.12973  -1.00212
 Alpha  occ. eigenvalues --   -0.71168  -0.63943  -0.56109  -0.49554  -0.48926
 Alpha  occ. eigenvalues --   -0.35277  -0.33756
 Alpha virt. eigenvalues --   -0.00027   0.01998   0.03474   0.04831   0.06482
 Alpha virt. eigenvalues --    0.07621   0.08103   0.09464   0.10439   0.11579
 Alpha virt. eigenvalues --    0.12462   0.13936   0.16954   0.17733   0.18553
 Alpha virt. eigenvalues --    0.21215   0.22244   0.22717   0.23186   0.25913
 Alpha virt. eigenvalues --    0.27648   0.27945   0.30666   0.31472   0.32346
 Alpha virt. eigenvalues --    0.33129   0.33876   0.35128   0.36984   0.40073
 Alpha virt. eigenvalues --    0.40908   0.41774   0.43294   0.44206   0.45572
 Alpha virt. eigenvalues --    0.51969   0.52979   0.54194   0.54993   0.57871
 Alpha virt. eigenvalues --    0.57941   0.63708   0.67816   0.72197   0.73898
 Alpha virt. eigenvalues --    0.74119   0.74668   0.76043   0.76841   0.79858
 Alpha virt. eigenvalues --    0.80501   0.81898   0.84771   0.85970   0.86706
 Alpha virt. eigenvalues --    0.87896   0.89980   0.91281   0.93482   0.95723
 Alpha virt. eigenvalues --    0.95938   0.97813   0.98607   1.00454   1.02770
 Alpha virt. eigenvalues --    1.02999   1.04384   1.07230   1.10878   1.12714
 Alpha virt. eigenvalues --    1.13550   1.17215   1.20010   1.22716   1.25686
 Alpha virt. eigenvalues --    1.26813   1.30349   1.31881   1.33201   1.36020
 Alpha virt. eigenvalues --    1.38666   1.42176   1.47636   1.48998   1.55281
 Alpha virt. eigenvalues --    1.57806   1.58558   1.61779   1.71810   1.72096
 Alpha virt. eigenvalues --    1.79458   1.84071   1.84802   1.85567   1.85899
 Alpha virt. eigenvalues --    1.90669   2.00114   2.01328   2.09342   2.10952
 Alpha virt. eigenvalues --    2.15566   2.18429   2.20946   2.23017   2.25148
 Alpha virt. eigenvalues --    2.28030   2.30223   2.32366   2.34012   2.38320
 Alpha virt. eigenvalues --    2.44087   2.44488   2.47030   2.56595   2.58534
 Alpha virt. eigenvalues --    2.62002   2.68591   2.78171   2.87162   2.90345
 Alpha virt. eigenvalues --    2.96871   3.03953   3.13031   3.21545   3.31185
 Alpha virt. eigenvalues --    3.32346   3.39046   3.40316   3.48862   3.53023
 Alpha virt. eigenvalues --    3.64228   3.67935   3.70966   3.74833   3.82935
 Alpha virt. eigenvalues --    3.84162   3.85016   3.93112   3.94763   4.04239
 Alpha virt. eigenvalues --    4.05016   4.08555   4.12221   4.15766   4.18032
 Alpha virt. eigenvalues --    4.19201   4.26124   4.40101   4.40198   4.45031
 Alpha virt. eigenvalues --    4.45837   4.51292   4.59974   4.62560   4.64220
 Alpha virt. eigenvalues --    4.71762   4.81703   4.82308   4.91533   4.92276
 Alpha virt. eigenvalues --    4.96080   5.08074   5.14742   5.17240   5.20822
 Alpha virt. eigenvalues --    5.28480   5.28715   5.43707   5.44823   5.67892
 Alpha virt. eigenvalues --    5.73336   5.82140   5.84221   5.87992   5.98398
 Alpha virt. eigenvalues --    6.13804   6.25968   6.30732   6.43584   6.56882
 Alpha virt. eigenvalues --    6.61887   6.68091   6.76589   6.84078   6.87461
 Alpha virt. eigenvalues --    6.89587   7.14255   7.15415   7.21414   7.34217
 Alpha virt. eigenvalues --    7.41442   7.59740  14.85065  15.94920  17.10710
          Condensed to atoms (all electrons):
              1          2          3          4          5          6
     1  C    4.956866   0.380594   0.464998  -0.034446  -0.039270   0.280991
     2  N    0.380594   6.124063  -0.121924   0.394354   0.431785  -0.054425
     3  O    0.464998  -0.121924   8.225802   0.007827   0.000780  -0.057687
     4  H   -0.034446   0.394354   0.007827   0.576042  -0.076789   0.007189
     5  H   -0.039270   0.431785   0.000780  -0.076789   0.592870   0.000465
     6  H    0.280991  -0.054425  -0.057687   0.007189   0.000465   0.355470
 Mulliken atomic charges:
              1
     1  C   -0.009733
     2  N   -0.154449
     3  O   -0.519796
     4  H    0.125822
     5  H    0.090159
     6  H    0.467997
 Sum of Mulliken atomic charges =   0.00000
 Mulliken charges with hydrogens summed into heavy atoms:
              1
     1  C    0.458264
     2  N    0.061532
     3  O   -0.519796
 Sum of Mulliken charges with hydrogens summed into heavy atoms =   0.00000
 Electronic spatial extent (au):  <R**2>=            147.0160
 Charge=              0.0000 electrons
 Dipole moment (field-independent basis, Debye):
    X=              3.9087    Y=              0.9471    Z=              0.0008  Tot=              4.0218
 Quadrupole moment (field-independent basis, Debye-Ang):
   XX=            -18.3801   YY=            -15.5380   ZZ=            -19.1489
   XY=             -1.2830   XZ=              0.0021   YZ=             -0.0001
 Traceless Quadrupole moment (field-independent basis, Debye-Ang):
   XX=             -0.6911   YY=              2.1510   ZZ=             -1.4599
   XY=             -1.2830   XZ=              0.0021   YZ=             -0.0001
 Octapole moment (field-independent basis, Debye-Ang**2):
  XXX=             13.0244  YYY=             -1.6735  ZZZ=              0.0011  XYY=              2.9266
  XXY=              0.9869  XXZ=              0.0036  XZZ=             -1.4524  YZZ=             -0.1764
  YYZ=              0.0012  XYZ=             -0.0001
 Hexadecapole moment (field-independent basis, Debye-Ang**3):
 XXXX=           -114.1260 YYYY=            -35.4113 ZZZZ=            -19.2257 XXXY=              2.5768
 XXXZ=              0.0081 YYYX=             -3.9726 YYYZ=              0.0005 ZZZX=              0.0021
 ZZZY=              0.0004 XXYY=            -24.2028 XXZZ=            -26.0924 YYZZ=            -10.2776
 XXYZ=              0.0004 YYXZ=              0.0015 ZZXY=              0.1519
 N-N= 7.125326549323D+01 E-N=-5.408343713576D+02  KE= 1.689106897179D+02
 Calling FoFJK, ICntrl=      2127 FMM=F ISym2X=0 I1Cent= 0 IOpClX= 0 NMat=1 NMatS=1 NMatT=0.
 FoFJK:  IHMeth= 1 ICntrl=  2127 DoSepK=T KAlg= 1 I1Cent= 0 FoldK=F
 ***** Axes restored to original set *****
 -------------------------------------------------------------------
 Center     Atomic                   Forces (Hartrees/Bohr)
 Number     Number              X              Y              Z
 -------------------------------------------------------------------
      1        6          -0.001445279   -0.002095450    0.000054998
      2        7          -0.001563070   -0.001665487   -0.000006748
      3        8           0.008577906    0.004668926   -0.000022184
      4        1          -0.000124345    0.003336276   -0.000002113
      5        1          -0.004197341   -0.001566520   -0.000005680
      6        1          -0.001247870   -0.002677744   -0.000018274
 -------------------------------------------------------------------
 Cartesian Forces:  Max     0.008577906 RMS     0.002857985

 GradGradGradGradGradGradGradGradGradGradGradGradGradGradGradGradGradGrad
 Berny optimization.
 Internal  Forces:  Max     0.009755945 RMS     0.003383714
 Search for a local minimum.
 Step number   1 out of a maximum of   25
 All quantities printed in internal units (Hartrees-Bohrs-Radians)
 Mixed Optimization -- RFO/linear search
 Second derivative matrix not updated -- first step.
 The second derivative matrix:
                          R1        R2        R3        R4        R5
           R1           0.53519
           R2           0.00000   0.99392
           R3           0.00000   0.00000   0.32998
           R4           0.00000   0.00000   0.00000   0.46041
           R5           0.00000   0.00000   0.00000   0.00000   0.46423
           A1           0.00000   0.00000   0.00000   0.00000   0.00000
           A2           0.00000   0.00000   0.00000   0.00000   0.00000
           A3           0.00000   0.00000   0.00000   0.00000   0.00000
           A4           0.00000   0.00000   0.00000   0.00000   0.00000
           A5           0.00000   0.00000   0.00000   0.00000   0.00000
           A6           0.00000   0.00000   0.00000   0.00000   0.00000
           D1           0.00000   0.00000   0.00000   0.00000   0.00000
           D2           0.00000   0.00000   0.00000   0.00000   0.00000
           D3           0.00000   0.00000   0.00000   0.00000   0.00000
           D4           0.00000   0.00000   0.00000   0.00000   0.00000
                          A1        A2        A3        A4        A5
           A1           0.25000
           A2           0.00000   0.16000
           A3           0.00000   0.00000   0.16000
           A4           0.00000   0.00000   0.00000   0.16000
           A5           0.00000   0.00000   0.00000   0.00000   0.16000
           A6           0.00000   0.00000   0.00000   0.00000   0.00000
           D1           0.00000   0.00000   0.00000   0.00000   0.00000
           D2           0.00000   0.00000   0.00000   0.00000   0.00000
           D3           0.00000   0.00000   0.00000   0.00000   0.00000
           D4           0.00000   0.00000   0.00000   0.00000   0.00000
                          A6        D1        D2        D3        D4
           A6           0.16000
           D1           0.00000   0.02258
           D2           0.00000   0.00000   0.02258
           D3           0.00000   0.00000   0.00000   0.02258
           D4           0.00000   0.00000   0.00000   0.00000   0.02258
     Eigenvalues ---    0.02258   0.02258   0.02258   0.16000   0.16000
     Eigenvalues ---    0.16000   0.22000   0.32998   0.46041   0.46423
     Eigenvalues ---    0.53519   0.993921000.000001000.000001000.00000
 RFO step:  Lambda=-2.92749919D-04 EMin= 2.25806287D-02
 Linear search not attempted -- first point.
 Iteration  1 RMS(Cart)=  0.00789256 RMS(Int)=  0.00002352
 Iteration  2 RMS(Cart)=  0.00002607 RMS(Int)=  0.00000018
 Iteration  3 RMS(Cart)=  0.00000000 RMS(Int)=  0.00000018
 Variable       Old X    -DE/DX   Delta X   Delta X   Delta X     New X
                                 (Linear)    (Quad)   (Total)
    R1        2.56472  -0.00542   0.00000  -0.01013  -0.01013   2.55459
    R2        2.28883  -0.00976   0.00000  -0.00981  -0.00981   2.27902
    R3        2.09054  -0.00271   0.00000  -0.00821  -0.00821   2.08234
    R4        1.90785  -0.00333   0.00000  -0.00724  -0.00724   1.90062
    R5        1.90357  -0.00435   0.00000  -0.00937  -0.00937   1.89420
    A1        2.17945  -0.00152   0.00000  -0.00691  -0.00691   2.17254
    A2        1.95930   0.00199   0.00000   0.01110   0.01110   1.97039
    A3        2.14444  -0.00046   0.00000  -0.00418  -0.00419   2.14025
    A4        2.07573   0.00089   0.00000   0.00558   0.00558   2.08131
    A5        2.12707  -0.00146   0.00000  -0.00913  -0.00913   2.11793
    A6        2.08039   0.00057   0.00000   0.00355   0.00355   2.08394
    D1       -0.00011  -0.00002   0.00000  -0.00077  -0.00077  -0.00088
    D2       -3.14096  -0.00002   0.00000  -0.00095  -0.00095   3.14128
    D3        3.14112   0.00002   0.00000   0.00084   0.00084  -3.14122
    D4        0.00027   0.00002   0.00000   0.00067   0.00067   0.00094
         Item               Value     Threshold  Converged?
 Maximum Force            0.009756     0.000450     NO 
 RMS     Force            0.003384     0.000300     NO 
 Maximum Displacement     0.020379     0.001800     NO 
 RMS     Displacement     0.007897     0.001200     NO 
 Predicted change in Energy=-1.464809D-04
 GradGradGradGradGradGradGradGradGradGradGradGradGradGradGradGradGradGrad

                          Input orientation:                          
 ---------------------------------------------------------------------
 Center     Atomic      Atomic             Coordinates (Angstroms)
 Number     Number       Type             X           Y           Z
 ---------------------------------------------------------------------
      1          6           0       -0.148598    0.391523    0.000356
      2          7           0        1.085291   -0.160709    0.000021
      3          8           0       -1.177861   -0.237020   -0.000147
      4          1           0        1.175379   -1.162431    0.000081
      5          1           0        1.910972    0.407619    0.000200
      6          1           0       -0.125213    1.493200   -0.000124
 ---------------------------------------------------------------------
                    Distance matrix (angstroms):
                    1          2          3          4          5
     1  C    0.000000
     2  N    1.351830   0.000000
     3  O    1.206005   2.264438   0.000000
     4  H    2.041492   1.005764   2.528660   0.000000
     5  H    2.059633   1.002370   3.155384   1.733826   0.000000
     6  H    1.101925   2.049570   2.025272   2.957011   2.307495
                    6
     6  H    0.000000
 Stoichiometry    CH3NO
 Framework group  C1[X(CH3NO)]
 Deg. of freedom    12
 Full point group                 C1      NOp   1
 Largest Abelian subgroup         C1      NOp   1
 Largest concise Abelian subgroup C1      NOp   1
                         Standard orientation:                         
 ---------------------------------------------------------------------
 Center     Atomic      Atomic             Coordinates (Angstroms)
 Number     Number       Type             X           Y           Z
 ---------------------------------------------------------------------
      1          6           0       -0.161006    0.387828    0.000303
      2          7           0        1.076068   -0.157234   -0.000032
      3          8           0       -1.186603   -0.246676   -0.000199
      4          1           0        1.171967   -1.158416    0.000029
      5          1           0        1.898436    0.415875    0.000147
      6          1           0       -0.144014    1.489622   -0.000177
 ---------------------------------------------------------------------
 Rotational constants (GHZ):     73.6593130     11.5087842      9.9536000
 Standard basis: Aug-CC-pVTZ (5D, 7F)
 There are   207 symmetry adapted basis functions of A   symmetry.
 Integral buffers will be    131072 words long.
 Raffenetti 2 integral format.
 Two-electron integral symmetry is turned on.
   207 basis functions,   297 primitive gaussians,   240 cartesian basis functions
    12 alpha electrons       12 beta electrons
       nuclear repulsion energy        71.5730026764 Hartrees.
 NAtoms=    6 NActive=    6 NUniq=    6 SFac= 7.50D-01 NAtFMM=   80 NAOKFM=F Big=F
 Standard density basis: Auto (5D, 7F)
   591 Density fitting functions
 There are   591 symmetry adapted density basis functions of A   symmetry.
 One-electron integrals computed using PRISM.
 NBasis=   207 RedAO= T  NBF=   207
 NBsUse=   207 1.00D-06 NBFU=   207
 Initial guess read from the read-write file.
 B after Tr=     0.000000    0.000000    0.000000
         Rot=    1.000000    0.000000    0.000000    0.000000 Ang=   0.00 deg.
 Initial guess orbital symmetries:
       Occupied  (A) (A) (A) (A) (A) (A) (A) (A) (A) (A) (A) (A)
       Virtual   (A) (A) (A) (A) (A) (A) (A) (A) (A) (A) (A) (A)
                 (A) (A) (A) (A) (A) (A) (A) (A) (A) (A) (A) (A)
                 (A) (A) (A) (A) (A) (A) (A) (A) (A) (A) (A) (A)
                 (A) (A) (A) (A) (A) (A) (A) (A) (A) (A) (A) (A)
                 (A) (A) (A) (A) (A) (A) (A) (A) (A) (A) (A) (A)
                 (A) (A) (A) (A) (A) (A) (A) (A) (A) (A) (A) (A)
                 (A) (A) (A) (A) (A) (A) (A) (A) (A) (A) (A) (A)
                 (A) (A) (A) (A) (A) (A) (A) (A) (A) (A) (A) (A)
                 (A) (A) (A) (A) (A) (A) (A) (A) (A) (A) (A) (A)
                 (A) (A) (A) (A) (A) (A) (A) (A) (A) (A) (A) (A)
                 (A) (A) (A) (A) (A) (A) (A) (A) (A) (A) (A) (A)
                 (A) (A) (A) (A) (A) (A) (A) (A) (A) (A) (A) (A)
                 (A) (A) (A) (A) (A) (A) (A) (A) (A) (A) (A) (A)
                 (A) (A) (A) (A) (A) (A) (A) (A) (A) (A) (A) (A)
                 (A) (A) (A) (A) (A) (A) (A) (A) (A) (A) (A) (A)
                 (A) (A) (A) (A) (A) (A) (A) (A) (A) (A) (A) (A)
                 (A) (A) (A)
 Harris functional with IExCor=20419 diagonalized for initial guess.
 ExpMin= 2.53D-02 ExpMax= 1.53D+04 ExpMxC= 5.22D+02 IAcc=3 IRadAn=         0 AccDes= 0.00D+00
 HarFok:  IExCor=20419 AccDes= 0.00D+00 IRadAn=         0 IDoV= 1
 ScaDFX=  1.000000  1.000000  1.000000  1.000000
 FoFCou: FMM=F IPFlag=           0 FMFlag=      100000 FMFlg1=           0
         NFxFlg=           0 DoJE=T BraDBF=F KetDBF=T FulRan=T
         Omega=  0.000000  0.000000  1.000000  0.000000  0.000000 ICntrl=     500 IOpCl=  0
         NMat0=    1 NMatS0=    1 NMatT0=    0 NMatD0=    1 NMtDS0=    0 NMtDT0=    0
         I1Cent=           4 NGrid=           0.
 Petite list used in FoFCou.
 Requested convergence on RMS density matrix=1.00D-08 within 128 cycles.
 Requested convergence on MAX density matrix=1.00D-06.
 Requested convergence on             energy=1.00D-06.
 No special actions if energy rises.
 FoFJK:  IHMeth= 1 ICntrl=     0 DoSepK=T KAlg= 1 I1Cent= 0 FoldK=F
 FoFJK:  IHMeth= 1 ICntrl=     0 DoSepK=T KAlg= 1 I1Cent= 0 FoldK=F
 FoFJK:  IHMeth= 1 ICntrl=     0 DoSepK=T KAlg= 1 I1Cent= 0 FoldK=F
 FoFJK:  IHMeth= 1 ICntrl=     0 DoSepK=T KAlg= 1 I1Cent= 0 FoldK=F
 FoFJK:  IHMeth= 1 ICntrl=     0 DoSepK=T KAlg= 1 I1Cent= 0 FoldK=F
 FoFJK:  IHMeth= 1 ICntrl=     0 DoSepK=T KAlg= 1 I1Cent= 0 FoldK=F
 FoFJK:  IHMeth= 1 ICntrl=     0 DoSepK=T KAlg= 1 I1Cent= 0 FoldK=F
 FoFJK:  IHMeth= 1 ICntrl=     0 DoSepK=T KAlg= 1 I1Cent= 0 FoldK=F
 FoFJK:  IHMeth= 1 ICntrl=     0 DoSepK=T KAlg= 1 I1Cent= 0 FoldK=F
 SCF Done:  E(RCAM-B3LYP) =  -169.897786300     A.U. after    9 cycles
             Convg  =    0.2230D-08             -V/T =  2.0055
 Calling FoFJK, ICntrl=      2127 FMM=F ISym2X=0 I1Cent= 0 IOpClX= 0 NMat=1 NMatS=1 NMatT=0.
 FoFJK:  IHMeth= 1 ICntrl=  2127 DoSepK=T KAlg= 1 I1Cent= 0 FoldK=F
 ***** Axes restored to original set *****
 -------------------------------------------------------------------
 Center     Atomic                   Forces (Hartrees/Bohr)
 Number     Number              X              Y              Z
 -------------------------------------------------------------------
      1        6           0.000178698   -0.000829478   -0.000160383
      2        7           0.000421674    0.000047113    0.000039962
      3        8          -0.000661962    0.000331850    0.000061159
      4        1          -0.000122241    0.000137696   -0.000000750
      5        1           0.000193640    0.000232524    0.000006553
      6        1          -0.000009808    0.000080295    0.000053458
 -------------------------------------------------------------------
 Cartesian Forces:  Max     0.000829478 RMS     0.000299470

 GradGradGradGradGradGradGradGradGradGradGradGradGradGradGradGradGradGrad
 Berny optimization.
 Using GEDIIS/GDIIS optimizer.
 Internal  Forces:  Max     0.000951170 RMS     0.000340265
 Search for a local minimum.
 Step number   2 out of a maximum of   25
 All quantities printed in internal units (Hartrees-Bohrs-Radians)
 Mixed Optimization -- En-DIIS/RFO-DIIS
 Update second derivatives using D2CorX and points    1    2
 DE= -1.38D-04 DEPred=-1.46D-04 R= 9.41D-01
 SS=  1.41D+00  RLast= 2.69D-02 DXNew= 5.0454D-01 8.0755D-02
 Trust test= 9.41D-01 RLast= 2.69D-02 DXMaxT set to 3.00D-01
 The second derivative matrix:
                          R1        R2        R3        R4        R5
           R1           0.53919
           R2           0.00511   0.99939
           R3           0.00094   0.00067   0.32993
           R4          -0.00338  -0.00725  -0.00228   0.45507
           R5           0.00443   0.00627   0.00135  -0.00203   0.46878
           A1           0.01329   0.02300   0.00618   0.00563   0.01119
           A2          -0.01200  -0.02069  -0.00554  -0.00486  -0.01015
           A3          -0.01282  -0.02304  -0.00640  -0.00785  -0.01028
           A4          -0.00150  -0.00233  -0.00056   0.00009  -0.00141
           A5          -0.00082  -0.00201  -0.00068  -0.00197  -0.00035
           A6           0.00232   0.00434   0.00124   0.00188   0.00176
           D1           0.00101   0.00179   0.00049   0.00055   0.00083
           D2           0.00110   0.00194   0.00053   0.00059   0.00090
           D3          -0.00099  -0.00175  -0.00048  -0.00053  -0.00081
           D4          -0.00090  -0.00160  -0.00044  -0.00049  -0.00074
                          A1        A2        A3        A4        A5
           A1           0.25944
           A2          -0.00899   0.16852
           A3          -0.00413   0.00424   0.15847
           A4          -0.00255   0.00234   0.00211   0.16039
           A5           0.00276  -0.00242  -0.00345  -0.00007   0.15930
           A6          -0.00021   0.00008   0.00133  -0.00032   0.00077
           D1           0.00048  -0.00047  -0.00005  -0.00018   0.00025
           D2           0.00052  -0.00051  -0.00005  -0.00019   0.00027
           D3          -0.00047   0.00046   0.00005   0.00017  -0.00024
           D4          -0.00042   0.00042   0.00004   0.00016  -0.00022
                          A6        D1        D2        D3        D4
           A6           0.15954
           D1          -0.00007   0.02260
           D2          -0.00008   0.00002   0.02260
           D3           0.00007  -0.00002  -0.00002   0.02260
           D4           0.00006  -0.00001  -0.00002   0.00001   0.02259
 Use linear search instead of GDIIS.
     Eigenvalues ---    0.02258   0.02258   0.02260   0.15696   0.16000
     Eigenvalues ---    0.16042   0.23278   0.33085   0.45538   0.46958
     Eigenvalues ---    0.54107   1.001461000.000001000.000001000.00000
 RFO step:  Lambda=-5.47775398D-06 EMin= 2.25806077D-02
 Quartic linear search produced a step of -0.05903.
 Iteration  1 RMS(Cart)=  0.00195311 RMS(Int)=  0.00000493
 Iteration  2 RMS(Cart)=  0.00000445 RMS(Int)=  0.00000134
 Iteration  3 RMS(Cart)=  0.00000000 RMS(Int)=  0.00000134
 Variable       Old X    -DE/DX   Delta X   Delta X   Delta X     New X
                                 (Linear)    (Quad)   (Total)
    R1        2.55459   0.00028   0.00060  -0.00030   0.00029   2.55488
    R2        2.27902   0.00039   0.00058  -0.00040   0.00018   2.27920
    R3        2.08234   0.00008   0.00048  -0.00042   0.00007   2.08240
    R4        1.90062  -0.00015   0.00043  -0.00087  -0.00044   1.90018
    R5        1.89420   0.00029   0.00055  -0.00015   0.00041   1.89461
    A1        2.17254   0.00095   0.00041   0.00352   0.00392   2.17647
    A2        1.97039  -0.00047  -0.00065  -0.00108  -0.00174   1.96865
    A3        2.14025  -0.00049   0.00025  -0.00243  -0.00219   2.13806
    A4        2.08131  -0.00009  -0.00033  -0.00008  -0.00041   2.08089
    A5        2.11793  -0.00003   0.00054  -0.00091  -0.00037   2.11756
    A6        2.08394   0.00012  -0.00021   0.00100   0.00079   2.08473
    D1       -0.00088   0.00006   0.00005   0.00222   0.00227   0.00138
    D2        3.14128   0.00006   0.00006   0.00240   0.00245  -3.13945
    D3       -3.14122  -0.00005  -0.00005  -0.00216  -0.00221   3.13975
    D4        0.00094  -0.00005  -0.00004  -0.00199  -0.00202  -0.00109
         Item               Value     Threshold  Converged?
 Maximum Force            0.000951     0.000450     NO 
 RMS     Force            0.000340     0.000300     NO 
 Maximum Displacement     0.003948     0.001800     NO 
 RMS     Displacement     0.001954     0.001200     NO 
 Predicted change in Energy=-3.300976D-06
 GradGradGradGradGradGradGradGradGradGradGradGradGradGradGradGradGradGrad

                          Input orientation:                          
 ---------------------------------------------------------------------
 Center     Atomic      Atomic             Coordinates (Angstroms)
 Number     Number       Type             X           Y           Z
 ---------------------------------------------------------------------
      1          6           0       -0.148743    0.390211   -0.000935
      2          7           0        1.085815   -0.160906   -0.000214
      3          8           0       -1.179950   -0.235322    0.000380
      4          1           0        1.176424   -1.162345    0.000321
      5          1           0        1.910916    0.408640    0.000444
      6          1           0       -0.124491    1.491904    0.000392
 ---------------------------------------------------------------------
                    Distance matrix (angstroms):
                    1          2          3          4          5
     1  C    0.000000
     2  N    1.351985   0.000000
     3  O    1.206101   2.266987   0.000000
     4  H    2.041201   1.005530   2.532167   0.000000
     5  H    2.059742   1.002584   3.157236   1.734207   0.000000
     6  H    1.101960   2.048566   2.024179   2.955912   2.305719
                    6
     6  H    0.000000
 Stoichiometry    CH3NO
 Framework group  C1[X(CH3NO)]
 Deg. of freedom    12
 Full point group                 C1      NOp   1
 Largest Abelian subgroup         C1      NOp   1
 Largest concise Abelian subgroup C1      NOp   1
                         Standard orientation:                         
 ---------------------------------------------------------------------
 Center     Atomic      Atomic             Coordinates (Angstroms)
 Number     Number       Type             X           Y           Z
 ---------------------------------------------------------------------
      1          6           0       -0.160852    0.386256   -0.000668
      2          7           0        1.077191   -0.156990   -0.000022
      3          8           0       -1.188054   -0.245831    0.000242
      4          1           0        1.174174   -1.157832    0.000093
      5          1           0        1.898648    0.417798    0.000990
      6          1           0       -0.143615    1.488080    0.001138
 ---------------------------------------------------------------------
 Rotational constants (GHZ):     73.9459374     11.4842557      9.9404471
 Standard basis: Aug-CC-pVTZ (5D, 7F)
 There are   207 symmetry adapted basis functions of A   symmetry.
 Integral buffers will be    131072 words long.
 Raffenetti 2 integral format.
 Two-electron integral symmetry is turned on.
   207 basis functions,   297 primitive gaussians,   240 cartesian basis functions
    12 alpha electrons       12 beta electrons
       nuclear repulsion energy        71.5539140521 Hartrees.
 NAtoms=    6 NActive=    6 NUniq=    6 SFac= 7.50D-01 NAtFMM=   80 NAOKFM=F Big=F
 Standard density basis: Auto (5D, 7F)
   591 Density fitting functions
 There are   591 symmetry adapted density basis functions of A   symmetry.
 One-electron integrals computed using PRISM.
 NBasis=   207 RedAO= T  NBF=   207
 NBsUse=   207 1.00D-06 NBFU=   207
 Initial guess read from the read-write file.
 B after Tr=     0.000000    0.000000    0.000000
         Rot=    1.000000    0.000000    0.000000    0.000000 Ang=   0.00 deg.
 Initial guess orbital symmetries:
       Occupied  (A) (A) (A) (A) (A) (A) (A) (A) (A) (A) (A) (A)
       Virtual   (A) (A) (A) (A) (A) (A) (A) (A) (A) (A) (A) (A)
                 (A) (A) (A) (A) (A) (A) (A) (A) (A) (A) (A) (A)
                 (A) (A) (A) (A) (A) (A) (A) (A) (A) (A) (A) (A)
                 (A) (A) (A) (A) (A) (A) (A) (A) (A) (A) (A) (A)
                 (A) (A) (A) (A) (A) (A) (A) (A) (A) (A) (A) (A)
                 (A) (A) (A) (A) (A) (A) (A) (A) (A) (A) (A) (A)
                 (A) (A) (A) (A) (A) (A) (A) (A) (A) (A) (A) (A)
                 (A) (A) (A) (A) (A) (A) (A) (A) (A) (A) (A) (A)
                 (A) (A) (A) (A) (A) (A) (A) (A) (A) (A) (A) (A)
                 (A) (A) (A) (A) (A) (A) (A) (A) (A) (A) (A) (A)
                 (A) (A) (A) (A) (A) (A) (A) (A) (A) (A) (A) (A)
                 (A) (A) (A) (A) (A) (A) (A) (A) (A) (A) (A) (A)
                 (A) (A) (A) (A) (A) (A) (A) (A) (A) (A) (A) (A)
                 (A) (A) (A) (A) (A) (A) (A) (A) (A) (A) (A) (A)
                 (A) (A) (A) (A) (A) (A) (A) (A) (A) (A) (A) (A)
                 (A) (A) (A) (A) (A) (A) (A) (A) (A) (A) (A) (A)
                 (A) (A) (A)
 Requested convergence on RMS density matrix=1.00D-08 within 128 cycles.
 Requested convergence on MAX density matrix=1.00D-06.
 Requested convergence on             energy=1.00D-06.
 No special actions if energy rises.
 FoFJK:  IHMeth= 1 ICntrl=     0 DoSepK=T KAlg= 1 I1Cent= 0 FoldK=F
 FoFJK:  IHMeth= 1 ICntrl=     0 DoSepK=T KAlg= 1 I1Cent= 0 FoldK=F
 FoFJK:  IHMeth= 1 ICntrl=     0 DoSepK=T KAlg= 1 I1Cent= 0 FoldK=F
 FoFJK:  IHMeth= 1 ICntrl=     0 DoSepK=T KAlg= 1 I1Cent= 0 FoldK=F
 FoFJK:  IHMeth= 1 ICntrl=     0 DoSepK=T KAlg= 1 I1Cent= 0 FoldK=F
 FoFJK:  IHMeth= 1 ICntrl=     0 DoSepK=T KAlg= 1 I1Cent= 0 FoldK=F
 FoFJK:  IHMeth= 1 ICntrl=     0 DoSepK=T KAlg= 1 I1Cent= 0 FoldK=F
 SCF Done:  E(RCAM-B3LYP) =  -169.897788724     A.U. after    7 cycles
             Convg  =    0.9613D-08             -V/T =  2.0055
 Calling FoFJK, ICntrl=      2127 FMM=F ISym2X=0 I1Cent= 0 IOpClX= 0 NMat=1 NMatS=1 NMatT=0.
 FoFJK:  IHMeth= 1 ICntrl=  2127 DoSepK=T KAlg= 1 I1Cent= 0 FoldK=F
 ***** Axes restored to original set *****
 -------------------------------------------------------------------
 Center     Atomic                   Forces (Hartrees/Bohr)
 Number     Number              X              Y              Z
 -------------------------------------------------------------------
      1        6          -0.000000743    0.000035897    0.000429565
      2        7          -0.000068783   -0.000101672   -0.000096460
      3        8           0.000010533   -0.000067021   -0.000165754
      4        1           0.000041356   -0.000098648   -0.000001176
      5        1          -0.000007292    0.000093537   -0.000022507
      6        1           0.000024928    0.000137907   -0.000143668
 -------------------------------------------------------------------
 Cartesian Forces:  Max     0.000429565 RMS     0.000129807

 GradGradGradGradGradGradGradGradGradGradGradGradGradGradGradGradGradGrad
 Berny optimization.
 Using GEDIIS/GDIIS optimizer.
 Internal  Forces:  Max     0.000164879 RMS     0.000100722
 Search for a local minimum.
 Step number   3 out of a maximum of   25
 All quantities printed in internal units (Hartrees-Bohrs-Radians)
 Mixed Optimization -- En-DIIS/RFO-DIIS
 Swaping is turned off.
 Update second derivatives using D2CorX and points    1    2    3
 DE= -2.42D-06 DEPred=-3.30D-06 R= 7.35D-01
 SS=  1.41D+00  RLast= 6.69D-03 DXNew= 5.0454D-01 2.0076D-02
 Trust test= 7.35D-01 RLast= 6.69D-03 DXMaxT set to 3.00D-01
 The second derivative matrix:
                          R1        R2        R3        R4        R5
           R1           0.53850
           R2           0.00433   0.99863
           R3          -0.00097  -0.00080   0.33221
           R4          -0.00346  -0.00668   0.00360   0.46034
           R5           0.00300   0.00481  -0.00070  -0.00078   0.46634
           A1           0.00744   0.01597  -0.01067   0.00312  -0.00066
           A2          -0.01227  -0.02022   0.00156   0.00170  -0.00883
           A3          -0.01317  -0.02238   0.00308   0.00096  -0.00852
           A4          -0.00246  -0.00295   0.00202   0.00423  -0.00209
           A5           0.00135  -0.00010  -0.00143  -0.00697   0.00237
           A6           0.00112   0.00305  -0.00059   0.00274  -0.00028
           D1           0.00280   0.00306  -0.00287  -0.00595   0.00244
           D2           0.00314   0.00340  -0.00323  -0.00676   0.00275
           D3          -0.00281  -0.00306   0.00290   0.00605  -0.00247
           D4          -0.00248  -0.00272   0.00254   0.00524  -0.00215
                          A1        A2        A3        A4        A5
           A1           0.21460
           A2          -0.01292   0.17677
           A3          -0.00955   0.01526   0.17322
           A4          -0.01126   0.00743   0.00891   0.16270
           A5           0.02103  -0.00844  -0.01145  -0.00173   0.15863
           A6          -0.00977   0.00101   0.00254  -0.00097   0.00310
           D1           0.01636  -0.00840  -0.01062  -0.00346   0.00206
           D2           0.01862  -0.00948  -0.01202  -0.00388   0.00227
           D3          -0.01667   0.00850   0.01076   0.00348  -0.00204
           D4          -0.01440   0.00741   0.00937   0.00306  -0.00183
                          A6        D1        D2        D3        D4
           A6           0.15786
           D1           0.00140   0.02711
           D2           0.00162   0.00508   0.02829
           D3          -0.00144  -0.00456  -0.00512   0.02717
           D4          -0.00123  -0.00400  -0.00449   0.00403   0.02612
     Eigenvalues ---    0.02258   0.02258   0.03052   0.14510   0.16013
     Eigenvalues ---    0.16146   0.23949   0.33355   0.46067   0.46655
     Eigenvalues ---    0.53979   1.000101000.000001000.000001000.00000
 En-DIIS/RFO-DIIS IScMMF=        0 using points:     3    2
 RFO step:  Lambda=-5.51227610D-07.
 DIIS coeffs:      0.78973      0.21027
 Iteration  1 RMS(Cart)=  0.00159368 RMS(Int)=  0.00000656
 Iteration  2 RMS(Cart)=  0.00000504 RMS(Int)=  0.00000452
 Iteration  3 RMS(Cart)=  0.00000000 RMS(Int)=  0.00000452
 Variable       Old X    -DE/DX   Delta X   Delta X   Delta X     New X
                                  (DIIS)     (GDIIS)  (Total)
    R1        2.55488   0.00001  -0.00006   0.00013   0.00007   2.55495
    R2        2.27920   0.00002  -0.00004   0.00007   0.00003   2.27924
    R3        2.08240   0.00014  -0.00001   0.00032   0.00031   2.08271
    R4        1.90018   0.00010   0.00009  -0.00011  -0.00002   1.90015
    R5        1.89461   0.00005  -0.00009   0.00026   0.00018   1.89478
    A1        2.17647  -0.00007  -0.00083   0.00194   0.00110   2.17757
    A2        1.96865   0.00001   0.00037  -0.00091  -0.00056   1.96809
    A3        2.13806   0.00006   0.00046  -0.00100  -0.00055   2.13751
    A4        2.08089   0.00009   0.00009   0.00022   0.00031   2.08120
    A5        2.11756  -0.00012   0.00008  -0.00083  -0.00075   2.11681
    A6        2.08473   0.00003  -0.00017   0.00061   0.00045   2.08518
    D1        0.00138  -0.00015  -0.00048  -0.00371  -0.00419  -0.00280
    D2       -3.13945  -0.00016  -0.00052  -0.00427  -0.00478   3.13895
    D3        3.13975   0.00015   0.00047   0.00381   0.00428  -3.13916
    D4       -0.00109   0.00013   0.00043   0.00326   0.00368   0.00259
         Item               Value     Threshold  Converged?
 Maximum Force            0.000165     0.000450     YES
 RMS     Force            0.000101     0.000300     YES
 Maximum Displacement     0.004628     0.001800     NO 
 RMS     Displacement     0.001594     0.001200     NO 
 Predicted change in Energy=-1.280274D-06
 GradGradGradGradGradGradGradGradGradGradGradGradGradGradGradGradGradGrad

                          Input orientation:                          
 ---------------------------------------------------------------------
 Center     Atomic      Atomic             Coordinates (Angstroms)
 Number     Number       Type             X           Y           Z
 ---------------------------------------------------------------------
      1          6           0       -0.148778    0.389798    0.001514
      2          7           0        1.085896   -0.161152    0.000290
      3          8           0       -1.180596   -0.234758   -0.000633
      4          1           0        1.176959   -1.162539   -0.000148
      5          1           0        1.910560    0.409191   -0.000052
      6          1           0       -0.124071    1.491643   -0.000583
 ---------------------------------------------------------------------
                    Distance matrix (angstroms):
                    1          2          3          4          5
     1  C    0.000000
     2  N    1.352023   0.000000
     3  O    1.206120   2.267687   0.000000
     4  H    2.041404   1.005519   2.533544   0.000000
     5  H    2.059429   1.002677   3.157517   1.734504   0.000000
     6  H    1.102125   2.048354   2.024033   2.955903   2.304653
                    6
     6  H    0.000000
 Stoichiometry    CH3NO
 Framework group  C1[X(CH3NO)]
 Deg. of freedom    12
 Full point group                 C1      NOp   1
 Largest Abelian subgroup         C1      NOp   1
 Largest concise Abelian subgroup C1      NOp   1
                         Standard orientation:                         
 ---------------------------------------------------------------------
 Center     Atomic      Atomic             Coordinates (Angstroms)
 Number     Number       Type             X           Y           Z
 ---------------------------------------------------------------------
      1          6           0        0.160806    0.385786   -0.001066
      2          7           0       -1.077489   -0.156975    0.000106
      3          8           0        1.188466   -0.245592    0.000363
      4          1           0       -1.175183   -1.157737   -0.000134
      5          1           0       -1.898357    0.418817    0.001072
      6          1           0        0.143399    1.487769    0.001811
 ---------------------------------------------------------------------
 Rotational constants (GHZ):     74.0168477     11.4776001      9.9367435
 Standard basis: Aug-CC-pVTZ (5D, 7F)
 There are   207 symmetry adapted basis functions of A   symmetry.
 Integral buffers will be    131072 words long.
 Raffenetti 2 integral format.
 Two-electron integral symmetry is turned on.
   207 basis functions,   297 primitive gaussians,   240 cartesian basis functions
    12 alpha electrons       12 beta electrons
       nuclear repulsion energy        71.5478125047 Hartrees.
 NAtoms=    6 NActive=    6 NUniq=    6 SFac= 7.50D-01 NAtFMM=   80 NAOKFM=F Big=F
 Standard density basis: Auto (5D, 7F)
   591 Density fitting functions
 There are   591 symmetry adapted density basis functions of A   symmetry.
 One-electron integrals computed using PRISM.
 NBasis=   207 RedAO= T  NBF=   207
 NBsUse=   207 1.00D-06 NBFU=   207
 Initial guess read from the read-write file.
 B after Tr=     0.000000    0.000000    0.000000
         Rot=    1.000000    0.000000    0.000000    0.000000 Ang=   0.00 deg.
 Initial guess orbital symmetries:
       Occupied  (A) (A) (A) (A) (A) (A) (A) (A) (A) (A) (A) (A)
       Virtual   (A) (A) (A) (A) (A) (A) (A) (A) (A) (A) (A) (A)
                 (A) (A) (A) (A) (A) (A) (A) (A) (A) (A) (A) (A)
                 (A) (A) (A) (A) (A) (A) (A) (A) (A) (A) (A) (A)
                 (A) (A) (A) (A) (A) (A) (A) (A) (A) (A) (A) (A)
                 (A) (A) (A) (A) (A) (A) (A) (A) (A) (A) (A) (A)
                 (A) (A) (A) (A) (A) (A) (A) (A) (A) (A) (A) (A)
                 (A) (A) (A) (A) (A) (A) (A) (A) (A) (A) (A) (A)
                 (A) (A) (A) (A) (A) (A) (A) (A) (A) (A) (A) (A)
                 (A) (A) (A) (A) (A) (A) (A) (A) (A) (A) (A) (A)
                 (A) (A) (A) (A) (A) (A) (A) (A) (A) (A) (A) (A)
                 (A) (A) (A) (A) (A) (A) (A) (A) (A) (A) (A) (A)
                 (A) (A) (A) (A) (A) (A) (A) (A) (A) (A) (A) (A)
                 (A) (A) (A) (A) (A) (A) (A) (A) (A) (A) (A) (A)
                 (A) (A) (A) (A) (A) (A) (A) (A) (A) (A) (A) (A)
                 (A) (A) (A) (A) (A) (A) (A) (A) (A) (A) (A) (A)
                 (A) (A) (A) (A) (A) (A) (A) (A) (A) (A) (A) (A)
                 (A) (A) (A)
 Requested convergence on RMS density matrix=1.00D-08 within 128 cycles.
 Requested convergence on MAX density matrix=1.00D-06.
 Requested convergence on             energy=1.00D-06.
 No special actions if energy rises.
 FoFJK:  IHMeth= 1 ICntrl=     0 DoSepK=T KAlg= 1 I1Cent= 0 FoldK=F
 FoFJK:  IHMeth= 1 ICntrl=     0 DoSepK=T KAlg= 1 I1Cent= 0 FoldK=F
 FoFJK:  IHMeth= 1 ICntrl=     0 DoSepK=T KAlg= 1 I1Cent= 0 FoldK=F
 FoFJK:  IHMeth= 1 ICntrl=     0 DoSepK=T KAlg= 1 I1Cent= 0 FoldK=F
 FoFJK:  IHMeth= 1 ICntrl=     0 DoSepK=T KAlg= 1 I1Cent= 0 FoldK=F
 FoFJK:  IHMeth= 1 ICntrl=     0 DoSepK=T KAlg= 1 I1Cent= 0 FoldK=F
 FoFJK:  IHMeth= 1 ICntrl=     0 DoSepK=T KAlg= 1 I1Cent= 0 FoldK=F
 FoFJK:  IHMeth= 1 ICntrl=     0 DoSepK=T KAlg= 1 I1Cent= 0 FoldK=F
 FoFJK:  IHMeth= 1 ICntrl=     0 DoSepK=T KAlg= 1 I1Cent= 0 FoldK=F
 FoFJK:  IHMeth= 1 ICntrl=     0 DoSepK=T KAlg= 1 I1Cent= 0 FoldK=F
 FoFJK:  IHMeth= 1 ICntrl=     0 DoSepK=T KAlg= 1 I1Cent= 0 FoldK=F
 FoFJK:  IHMeth= 1 ICntrl=     0 DoSepK=T KAlg= 1 I1Cent= 0 FoldK=F
 FoFJK:  IHMeth= 1 ICntrl=     0 DoSepK=T KAlg= 1 I1Cent= 0 FoldK=F
 SCF Done:  E(RCAM-B3LYP) =  -169.897787778     A.U. after   13 cycles
             Convg  =    0.2724D-08             -V/T =  2.0055
 Calling FoFJK, ICntrl=      2127 FMM=F ISym2X=0 I1Cent= 0 IOpClX= 0 NMat=1 NMatS=1 NMatT=0.
 FoFJK:  IHMeth= 1 ICntrl=  2127 DoSepK=T KAlg= 1 I1Cent= 0 FoldK=F
 ***** Axes restored to original set *****
 -------------------------------------------------------------------
 Center     Atomic                   Forces (Hartrees/Bohr)
 Number     Number              X              Y              Z
 -------------------------------------------------------------------
      1        6          -0.000067937    0.000301198   -0.000686509
      2        7          -0.000160468   -0.000087048    0.000160439
      3        8           0.000182538   -0.000165766    0.000263625
      4        1           0.000069213   -0.000107432    0.000000088
      5        1          -0.000053140   -0.000004586    0.000032783
      6        1           0.000029794    0.000063634    0.000229574
 -------------------------------------------------------------------
 Cartesian Forces:  Max     0.000686509 RMS     0.000215237

 GradGradGradGradGradGradGradGradGradGradGradGradGradGradGradGradGradGrad
 Berny optimization.
 Using GEDIIS/GDIIS optimizer.
 Internal  Forces:  Max     0.000333324 RMS     0.000169019
 Search for a local minimum.
 Step number   4 out of a maximum of   25
 All quantities printed in internal units (Hartrees-Bohrs-Radians)
 Mixed Optimization -- En-DIIS/RFO-DIIS
 Swaping is turned off.
 Update second derivatives using D2CorX and points    1    2    3    4
 DE=  9.46D-07 DEPred=-1.28D-06 R=-7.39D-01
 Trust test=-7.39D-01 RLast= 8.67D-03 DXMaxT set to 1.50D-01
 The second derivative matrix:
                          R1        R2        R3        R4        R5
           R1           0.53618
           R2           0.00116   0.99414
           R3          -0.00121   0.00071   0.33324
           R4          -0.00230  -0.00419   0.00935   0.46655
           R5           0.00088   0.00249  -0.00216   0.00080   0.46368
           A1           0.00316   0.01178  -0.02583  -0.00300  -0.00867
           A2          -0.00617  -0.01051   0.00954   0.00721  -0.00237
           A3          -0.00719  -0.01236   0.01378   0.01010  -0.00204
           A4          -0.00150  -0.00024   0.00313   0.00825  -0.00214
           A5           0.00102  -0.00266   0.00015  -0.01108   0.00414
           A6           0.00047   0.00289  -0.00328   0.00284  -0.00200
           D1          -0.00087  -0.00187  -0.00080   0.00027  -0.00146
           D2          -0.00096  -0.00214  -0.00088   0.00012  -0.00156
           D3           0.00086   0.00192   0.00079  -0.00013   0.00141
           D4           0.00077   0.00164   0.00071  -0.00028   0.00131
                          A1        A2        A3        A4        A5
           A1           0.20234
           A2          -0.00932   0.17349
           A3          -0.01147   0.01644   0.18079
           A4          -0.02115   0.01052   0.01429   0.16325
           A5           0.03710  -0.01312  -0.01811  -0.00055   0.15391
           A6          -0.01595   0.00260   0.00382  -0.00269   0.00664
           D1          -0.00462   0.00142   0.00231   0.00071  -0.00008
           D2          -0.00453   0.00140   0.00231   0.00080  -0.00020
           D3           0.00417  -0.00129  -0.00212  -0.00072   0.00017
           D4           0.00425  -0.00132  -0.00212  -0.00063   0.00004
                          A6        D1        D2        D3        D4
           A6           0.15605
           D1          -0.00063   0.03875
           D2          -0.00059   0.01809   0.04282
           D3           0.00055  -0.01624  -0.01816   0.03888
           D4           0.00059  -0.01432  -0.01602   0.01438   0.03526
     Eigenvalues ---    0.02257   0.02258   0.08659   0.11979   0.16003
     Eigenvalues ---    0.16153   0.23691   0.34050   0.46376   0.46862
     Eigenvalues ---    0.53655   0.994681000.000001000.000001000.00000
 En-DIIS/RFO-DIIS IScMMF=        0 using points:     4    3    2
 RFO step:  Lambda=-1.11532898D-06.
 DIIS coeffs:      0.33349      0.54218      0.12433
 Iteration  1 RMS(Cart)=  0.00101792 RMS(Int)=  0.00000224
 Iteration  2 RMS(Cart)=  0.00000205 RMS(Int)=  0.00000091
 Iteration  3 RMS(Cart)=  0.00000000 RMS(Int)=  0.00000091
 Variable       Old X    -DE/DX   Delta X   Delta X   Delta X     New X
                                  (DIIS)     (GDIIS)  (Total)
    R1        2.55495  -0.00005  -0.00008   0.00005  -0.00004   2.55492
    R2        2.27924  -0.00007  -0.00005   0.00004  -0.00001   2.27923
    R3        2.08271   0.00006  -0.00022   0.00032   0.00011   2.08282
    R4        1.90015   0.00011   0.00007   0.00013   0.00020   1.90036
    R5        1.89478  -0.00005  -0.00017   0.00011  -0.00006   1.89473
    A1        2.17757  -0.00033  -0.00122   0.00004  -0.00118   2.17639
    A2        1.96809   0.00014   0.00059  -0.00014   0.00045   1.96854
    A3        2.13751   0.00020   0.00064   0.00010   0.00074   2.13825
    A4        2.08120   0.00009  -0.00015   0.00040   0.00025   2.08145
    A5        2.11681  -0.00007   0.00055  -0.00060  -0.00005   2.11675
    A6        2.08518  -0.00002  -0.00040   0.00020  -0.00019   2.08498
    D1       -0.00280   0.00023   0.00251   0.00009   0.00260  -0.00020
    D2        3.13895   0.00026   0.00288   0.00003   0.00291  -3.14133
    D3       -3.13916  -0.00023  -0.00258  -0.00004  -0.00261   3.14142
    D4        0.00259  -0.00021  -0.00220  -0.00010  -0.00231   0.00029
         Item               Value     Threshold  Converged?
 Maximum Force            0.000333     0.000450     YES
 RMS     Force            0.000169     0.000300     YES
 Maximum Displacement     0.002846     0.001800     NO 
 RMS     Displacement     0.001018     0.001200     YES
 Predicted change in Energy=-1.563957D-06
 GradGradGradGradGradGradGradGradGradGradGradGradGradGradGradGradGradGrad

                          Input orientation:                          
 ---------------------------------------------------------------------
 Center     Atomic      Atomic             Coordinates (Angstroms)
 Number     Number       Type             X           Y           Z
 ---------------------------------------------------------------------
      1          6           0       -0.148761    0.390183    0.000008
      2          7           0        1.085724   -0.161144   -0.000006
      3          8           0       -1.180033   -0.235269   -0.000016
      4          1           0        1.176733   -1.162644    0.000139
      5          1           0        1.910510    0.408967    0.000242
      6          1           0       -0.124203    1.492090    0.000019
 ---------------------------------------------------------------------
                    Distance matrix (angstroms):
                    1          2          3          4          5
     1  C    0.000000
     2  N    1.352004   0.000000
     3  O    1.206114   2.266970   0.000000
     4  H    2.041618   1.005626   2.532661   0.000000
     5  H    2.059357   1.002646   3.156976   1.734471   0.000000
     6  H    1.102180   2.048684   2.024486   2.956356   2.305040
                    6
     6  H    0.000000
 Stoichiometry    CH3NO
 Framework group  C1[X(CH3NO)]
 Deg. of freedom    12
 Full point group                 C1      NOp   1
 Largest Abelian subgroup         C1      NOp   1
 Largest concise Abelian subgroup C1      NOp   1
                         Standard orientation:                         
 ---------------------------------------------------------------------
 Center     Atomic      Atomic             Coordinates (Angstroms)
 Number     Number       Type             X           Y           Z
 ---------------------------------------------------------------------
      1          6           0       -0.160857    0.386261   -0.000004
      2          7           0        1.077168   -0.157071   -0.000017
      3          8           0       -1.188063   -0.245846   -0.000027
      4          1           0        1.174650   -1.157961    0.000127
      5          1           0        1.898249    0.418362    0.000231
      6          1           0       -0.143425    1.488304    0.000008
 ---------------------------------------------------------------------
 Rotational constants (GHZ):     73.9246817     11.4844804      9.9402282
 Standard basis: Aug-CC-pVTZ (5D, 7F)
 There are   207 symmetry adapted basis functions of A   symmetry.
 Integral buffers will be    131072 words long.
 Raffenetti 2 integral format.
 Two-electron integral symmetry is turned on.
   207 basis functions,   297 primitive gaussians,   240 cartesian basis functions
    12 alpha electrons       12 beta electrons
       nuclear repulsion energy        71.5517304789 Hartrees.
 NAtoms=    6 NActive=    6 NUniq=    6 SFac= 7.50D-01 NAtFMM=   80 NAOKFM=F Big=F
 Standard density basis: Auto (5D, 7F)
   591 Density fitting functions
 There are   591 symmetry adapted density basis functions of A   symmetry.
 One-electron integrals computed using PRISM.
 NBasis=   207 RedAO= T  NBF=   207
 NBsUse=   207 1.00D-06 NBFU=   207
 Initial guess read from the read-write file.
 B after Tr=     0.000000    0.000000    0.000000
         Rot=    1.000000    0.000000    0.000000    0.000000 Ang=   0.00 deg.
 Initial guess orbital symmetries:
       Occupied  (A) (A) (A) (A) (A) (A) (A) (A) (A) (A) (A) (A)
       Virtual   (A) (A) (A) (A) (A) (A) (A) (A) (A) (A) (A) (A)
                 (A) (A) (A) (A) (A) (A) (A) (A) (A) (A) (A) (A)
                 (A) (A) (A) (A) (A) (A) (A) (A) (A) (A) (A) (A)
                 (A) (A) (A) (A) (A) (A) (A) (A) (A) (A) (A) (A)
                 (A) (A) (A) (A) (A) (A) (A) (A) (A) (A) (A) (A)
                 (A) (A) (A) (A) (A) (A) (A) (A) (A) (A) (A) (A)
                 (A) (A) (A) (A) (A) (A) (A) (A) (A) (A) (A) (A)
                 (A) (A) (A) (A) (A) (A) (A) (A) (A) (A) (A) (A)
                 (A) (A) (A) (A) (A) (A) (A) (A) (A) (A) (A) (A)
                 (A) (A) (A) (A) (A) (A) (A) (A) (A) (A) (A) (A)
                 (A) (A) (A) (A) (A) (A) (A) (A) (A) (A) (A) (A)
                 (A) (A) (A) (A) (A) (A) (A) (A) (A) (A) (A) (A)
                 (A) (A) (A) (A) (A) (A) (A) (A) (A) (A) (A) (A)
                 (A) (A) (A) (A) (A) (A) (A) (A) (A) (A) (A) (A)
                 (A) (A) (A) (A) (A) (A) (A) (A) (A) (A) (A) (A)
                 (A) (A) (A) (A) (A) (A) (A) (A) (A) (A) (A) (A)
                 (A) (A) (A)
 Requested convergence on RMS density matrix=1.00D-08 within 128 cycles.
 Requested convergence on MAX density matrix=1.00D-06.
 Requested convergence on             energy=1.00D-06.
 No special actions if energy rises.
 FoFJK:  IHMeth= 1 ICntrl=     0 DoSepK=T KAlg= 1 I1Cent= 0 FoldK=F
 FoFJK:  IHMeth= 1 ICntrl=     0 DoSepK=T KAlg= 1 I1Cent= 0 FoldK=F
 FoFJK:  IHMeth= 1 ICntrl=     0 DoSepK=T KAlg= 1 I1Cent= 0 FoldK=F
 FoFJK:  IHMeth= 1 ICntrl=     0 DoSepK=T KAlg= 1 I1Cent= 0 FoldK=F
 FoFJK:  IHMeth= 1 ICntrl=     0 DoSepK=T KAlg= 1 I1Cent= 0 FoldK=F
 FoFJK:  IHMeth= 1 ICntrl=     0 DoSepK=T KAlg= 1 I1Cent= 0 FoldK=F
 FoFJK:  IHMeth= 1 ICntrl=     0 DoSepK=T KAlg= 1 I1Cent= 0 FoldK=F
 FoFJK:  IHMeth= 1 ICntrl=     0 DoSepK=T KAlg= 1 I1Cent= 0 FoldK=F
 FoFJK:  IHMeth= 1 ICntrl=     0 DoSepK=T KAlg= 1 I1Cent= 0 FoldK=F
 FoFJK:  IHMeth= 1 ICntrl=     0 DoSepK=T KAlg= 1 I1Cent= 0 FoldK=F
 FoFJK:  IHMeth= 1 ICntrl=     0 DoSepK=T KAlg= 1 I1Cent= 0 FoldK=F
 FoFJK:  IHMeth= 1 ICntrl=     0 DoSepK=T KAlg= 1 I1Cent= 0 FoldK=F
 FoFJK:  IHMeth= 1 ICntrl=     0 DoSepK=T KAlg= 1 I1Cent= 0 FoldK=F
 SCF Done:  E(RCAM-B3LYP) =  -169.897789354     A.U. after   13 cycles
             Convg  =    0.2726D-08             -V/T =  2.0055
 Calling FoFJK, ICntrl=      2127 FMM=F ISym2X=0 I1Cent= 0 IOpClX= 0 NMat=1 NMatS=1 NMatT=0.
 FoFJK:  IHMeth= 1 ICntrl=  2127 DoSepK=T KAlg= 1 I1Cent= 0 FoldK=F
 ***** Axes restored to original set *****
 -------------------------------------------------------------------
 Center     Atomic                   Forces (Hartrees/Bohr)
 Number     Number              X              Y              Z
 -------------------------------------------------------------------
      1        6          -0.000025278    0.000026083    0.000000552
      2        7          -0.000007787   -0.000028416    0.000002016
      3        8           0.000021922   -0.000011468   -0.000000598
      4        1           0.000011880   -0.000001283   -0.000000665
      5        1          -0.000010061    0.000010433   -0.000001070
      6        1           0.000009324    0.000004652   -0.000000236
 -------------------------------------------------------------------
 Cartesian Forces:  Max     0.000028416 RMS     0.000013473

 GradGradGradGradGradGradGradGradGradGradGradGradGradGradGradGradGradGrad
 Berny optimization.
 Using GEDIIS/GDIIS optimizer.
 Internal  Forces:  Max     0.000022123 RMS     0.000011757
 Search for a local minimum.
 Step number   5 out of a maximum of   25
 All quantities printed in internal units (Hartrees-Bohrs-Radians)
 Mixed Optimization -- En-DIIS/RFO-DIIS
 Swaping is turned off.
 Update second derivatives using D2CorX and points    1    2    3    4    5
 DE= -1.58D-06 DEPred=-1.56D-06 R= 1.01D+00
 SS=  1.41D+00  RLast= 5.45D-03 DXNew= 2.5227D-01 1.6344D-02
 Trust test= 1.01D+00 RLast= 5.45D-03 DXMaxT set to 1.50D-01
 The second derivative matrix:
                          R1        R2        R3        R4        R5
           R1           0.53713
           R2           0.00123   0.99207
           R3           0.00212   0.00887   0.33373
           R4          -0.00388  -0.00419   0.00836   0.46639
           R5           0.00365   0.00646   0.00204   0.00015   0.46821
           A1           0.01579   0.02686  -0.01282  -0.00251   0.00568
           A2          -0.01010  -0.01457   0.00578   0.00920  -0.00739
           A3          -0.01161  -0.01628   0.00636   0.00870  -0.00765
           A4           0.00031   0.00536  -0.00137   0.00588  -0.00136
           A5          -0.00388  -0.01369   0.00396  -0.00829   0.00038
           A6           0.00357   0.00834  -0.00259   0.00241   0.00098
           D1          -0.00007   0.00025  -0.00010   0.00002  -0.00004
           D2          -0.00015   0.00006   0.00014   0.00005  -0.00001
           D3           0.00012  -0.00009  -0.00009  -0.00005   0.00001
           D4           0.00005  -0.00028   0.00015  -0.00002   0.00005
                          A1        A2        A3        A4        A5
           A1           0.23596
           A2          -0.02659   0.18077
           A3          -0.02262   0.02298   0.18327
           A4          -0.01572   0.00921   0.00931   0.15686
           A5           0.02423  -0.00841  -0.00935   0.00754   0.14460
           A6          -0.00851  -0.00080   0.00004  -0.00440   0.00786
           D1           0.00001   0.00018  -0.00020  -0.00029   0.00037
           D2           0.00021   0.00014  -0.00022  -0.00007   0.00000
           D3          -0.00015  -0.00014   0.00019   0.00010  -0.00006
           D4           0.00005  -0.00018   0.00017   0.00032  -0.00043
                          A6        D1        D2        D3        D4
           A6           0.15654
           D1          -0.00007   0.03913
           D2           0.00008   0.01859   0.04344
           D3          -0.00004  -0.01667  -0.01872   0.03937
           D4           0.00010  -0.01464  -0.01644   0.01475   0.03553
     Eigenvalues ---    0.02257   0.02258   0.08974   0.12673   0.15899
     Eigenvalues ---    0.16047   0.26137   0.33601   0.46749   0.46836
     Eigenvalues ---    0.53938   0.994211000.000001000.000001000.00000
 En-DIIS/RFO-DIIS IScMMF=        0 using points:     5    4    3    2
 RFO step:  Lambda= 0.00000000D+00.
 DIIS coeffs:      1.18889     -0.06836     -0.11476     -0.00577
 Iteration  1 RMS(Cart)=  0.00008721 RMS(Int)=  0.00000021
 Iteration  2 RMS(Cart)=  0.00000001 RMS(Int)=  0.00000021
 Variable       Old X    -DE/DX   Delta X   Delta X   Delta X     New X
                                  (DIIS)     (GDIIS)  (Total)
    R1        2.55492   0.00000   0.00000   0.00001   0.00001   2.55493
    R2        2.27923  -0.00001   0.00000  -0.00002  -0.00001   2.27921
    R3        2.08282   0.00001   0.00006  -0.00004   0.00002   2.08284
    R4        1.90036   0.00000   0.00003  -0.00003   0.00000   1.90036
    R5        1.89473   0.00000   0.00001  -0.00002   0.00000   1.89472
    A1        2.17639  -0.00002  -0.00007   0.00001  -0.00006   2.17634
    A2        1.96854   0.00000   0.00001  -0.00006  -0.00005   1.96849
    A3        2.13825   0.00002   0.00006   0.00005   0.00011   2.13836
    A4        2.08145   0.00002   0.00008   0.00006   0.00014   2.08159
    A5        2.11675  -0.00002  -0.00010  -0.00006  -0.00016   2.11659
    A6        2.08498   0.00000   0.00002   0.00000   0.00002   2.08501
    D1       -0.00020   0.00000   0.00000   0.00003   0.00003  -0.00017
    D2       -3.14133   0.00000  -0.00001  -0.00003  -0.00005  -3.14137
    D3        3.14142   0.00000   0.00001   0.00002   0.00003   3.14145
    D4        0.00029   0.00000   0.00000  -0.00004  -0.00004   0.00025
         Item               Value     Threshold  Converged?
 Maximum Force            0.000022     0.000450     YES
 RMS     Force            0.000012     0.000300     YES
 Maximum Displacement     0.000199     0.001800     YES
 RMS     Displacement     0.000087     0.001200     YES
 Predicted change in Energy=-4.852894D-09
 Optimization completed.
    -- Stationary point found.
                           ----------------------------
                           !   Optimized Parameters   !
                           ! (Angstroms and Degrees)  !
 --------------------------                            --------------------------
 ! Name  Definition              Value          Derivative Info.                !
 --------------------------------------------------------------------------------
 ! R1    R(1,2)                  1.352          -DE/DX =    0.0                 !
 ! R2    R(1,3)                  1.2061         -DE/DX =    0.0                 !
 ! R3    R(1,6)                  1.1022         -DE/DX =    0.0                 !
 ! R4    R(2,4)                  1.0056         -DE/DX =    0.0                 !
 ! R5    R(2,5)                  1.0026         -DE/DX =    0.0                 !
 ! A1    A(2,1,3)              124.698          -DE/DX =    0.0                 !
 ! A2    A(2,1,6)              112.789          -DE/DX =    0.0                 !
 ! A3    A(3,1,6)              122.5129         -DE/DX =    0.0                 !
 ! A4    A(1,2,4)              119.2581         -DE/DX =    0.0                 !
 ! A5    A(1,2,5)              121.2811         -DE/DX =    0.0                 !
 ! A6    A(4,2,5)              119.4608         -DE/DX =    0.0                 !
 ! D1    D(3,1,2,4)             -0.0115         -DE/DX =    0.0                 !
 ! D2    D(3,1,2,5)           -179.9848         -DE/DX =    0.0                 !
 ! D3    D(6,1,2,4)            179.9898         -DE/DX =    0.0                 !
 ! D4    D(6,1,2,5)              0.0165         -DE/DX =    0.0                 !
 --------------------------------------------------------------------------------
 GradGradGradGradGradGradGradGradGradGradGradGradGradGradGradGradGradGrad

                          Input orientation:                          
 ---------------------------------------------------------------------
 Center     Atomic      Atomic             Coordinates (Angstroms)
 Number     Number       Type             X           Y           Z
 ---------------------------------------------------------------------
      1          6           0       -0.148761    0.390183    0.000008
      2          7           0        1.085724   -0.161144   -0.000006
      3          8           0       -1.180033   -0.235269   -0.000016
      4          1           0        1.176733   -1.162644    0.000139
      5          1           0        1.910510    0.408967    0.000242
      6          1           0       -0.124203    1.492090    0.000019
 ---------------------------------------------------------------------
                    Distance matrix (angstroms):
                    1          2          3          4          5
     1  C    0.000000
     2  N    1.352004   0.000000
     3  O    1.206114   2.266970   0.000000
     4  H    2.041618   1.005626   2.532661   0.000000
     5  H    2.059357   1.002646   3.156976   1.734471   0.000000
     6  H    1.102180   2.048684   2.024486   2.956356   2.305040
                    6
     6  H    0.000000
 Stoichiometry    CH3NO
 Framework group  C1[X(CH3NO)]
 Deg. of freedom    12
 Full point group                 C1      NOp   1
 Largest Abelian subgroup         C1      NOp   1
 Largest concise Abelian subgroup C1      NOp   1
                         Standard orientation:                         
 ---------------------------------------------------------------------
 Center     Atomic      Atomic             Coordinates (Angstroms)
 Number     Number       Type             X           Y           Z
 ---------------------------------------------------------------------
      1          6           0       -0.160857    0.386261   -0.000004
      2          7           0        1.077168   -0.157071   -0.000017
      3          8           0       -1.188063   -0.245846   -0.000027
      4          1           0        1.174650   -1.157961    0.000127
      5          1           0        1.898249    0.418362    0.000231
      6          1           0       -0.143425    1.488304    0.000008
 ---------------------------------------------------------------------
 Rotational constants (GHZ):     73.9246817     11.4844804      9.9402282

 **********************************************************************

            Population analysis using the SCF density.

 **********************************************************************

 Orbital symmetries:
       Occupied  (A) (A) (A) (A) (A) (A) (A) (A) (A) (A) (A) (A)
       Virtual   (A) (A) (A) (A) (A) (A) (A) (A) (A) (A) (A) (A)
                 (A) (A) (A) (A) (A) (A) (A) (A) (A) (A) (A) (A)
                 (A) (A) (A) (A) (A) (A) (A) (A) (A) (A) (A) (A)
                 (A) (A) (A) (A) (A) (A) (A) (A) (A) (A) (A) (A)
                 (A) (A) (A) (A) (A) (A) (A) (A) (A) (A) (A) (A)
                 (A) (A) (A) (A) (A) (A) (A) (A) (A) (A) (A) (A)
                 (A) (A) (A) (A) (A) (A) (A) (A) (A) (A) (A) (A)
                 (A) (A) (A) (A) (A) (A) (A) (A) (A) (A) (A) (A)
                 (A) (A) (A) (A) (A) (A) (A) (A) (A) (A) (A) (A)
                 (A) (A) (A) (A) (A) (A) (A) (A) (A) (A) (A) (A)
                 (A) (A) (A) (A) (A) (A) (A) (A) (A) (A) (A) (A)
                 (A) (A) (A) (A) (A) (A) (A) (A) (A) (A) (A) (A)
                 (A) (A) (A) (A) (A) (A) (A) (A) (A) (A) (A) (A)
                 (A) (A) (A) (A) (A) (A) (A) (A) (A) (A) (A) (A)
                 (A) (A) (A) (A) (A) (A) (A) (A) (A) (A) (A) (A)
                 (A) (A) (A) (A) (A) (A) (A) (A) (A) (A) (A) (A)
                 (A) (A) (A)
 The electronic state is 1-A.
 Alpha  occ. eigenvalues --  -19.17924 -14.42701 -10.35831  -1.13224  -1.00388
 Alpha  occ. eigenvalues --   -0.71233  -0.64112  -0.56300  -0.49563  -0.49086
 Alpha  occ. eigenvalues --   -0.35291  -0.33707
 Alpha virt. eigenvalues --   -0.00005   0.02006   0.03480   0.04953   0.06515
 Alpha virt. eigenvalues --    0.07640   0.08118   0.09491   0.10447   0.11595
 Alpha virt. eigenvalues --    0.12495   0.13963   0.16981   0.17764   0.18601
 Alpha virt. eigenvalues --    0.21226   0.22332   0.22729   0.23214   0.25920
 Alpha virt. eigenvalues --    0.27687   0.28060   0.30746   0.31517   0.32384
 Alpha virt. eigenvalues --    0.33187   0.33883   0.35215   0.37087   0.40168
 Alpha virt. eigenvalues --    0.40950   0.41789   0.43497   0.44232   0.45964
 Alpha virt. eigenvalues --    0.52053   0.53042   0.54258   0.54989   0.57970
 Alpha virt. eigenvalues --    0.58156   0.63797   0.67983   0.72296   0.73943
 Alpha virt. eigenvalues --    0.74289   0.74699   0.76184   0.76839   0.79812
 Alpha virt. eigenvalues --    0.80484   0.81938   0.84866   0.86093   0.86687
 Alpha virt. eigenvalues --    0.88071   0.90132   0.91392   0.93572   0.95728
 Alpha virt. eigenvalues --    0.96065   0.98019   0.98694   1.00539   1.02777
 Alpha virt. eigenvalues --    1.03158   1.04524   1.07354   1.10979   1.12788
 Alpha virt. eigenvalues --    1.13605   1.17332   1.20036   1.22905   1.25719
 Alpha virt. eigenvalues --    1.26922   1.30576   1.32049   1.33244   1.36200
 Alpha virt. eigenvalues --    1.38958   1.42411   1.48043   1.49035   1.55336
 Alpha virt. eigenvalues --    1.58411   1.58826   1.61648   1.72216   1.72532
 Alpha virt. eigenvalues --    1.80003   1.84416   1.85064   1.85927   1.85945
[...]
 Raman Activ --     0.0285                 1.0696                 0.0412
 Depolar (P) --     0.7500                 0.2864                 0.7500
 Depolar (U) --     0.8571                 0.4453                 0.8571
  Atom  AN      X      Y      Z        X      Y      Z        X      Y      Z
     1   6     0.00   0.00  -0.01    -0.01   0.20   0.00     0.00   0.00  -0.10
     2   7     0.00   0.00   0.13    -0.15  -0.02   0.00     0.00   0.00   0.05
     3   8     0.00   0.00  -0.02     0.19  -0.11   0.00     0.00   0.00   0.06
     4   1     0.00   0.00  -0.53    -0.76  -0.08   0.00     0.00   0.00  -0.77
     5   1     0.00   0.00  -0.84     0.16  -0.48   0.00     0.00   0.00   0.58
     6   1     0.00   0.00   0.00    -0.14   0.19   0.00     0.00   0.00  -0.23
                     4                      5                      6
                     A                      A                      A
 Frequencies --  1059.4904              1067.2934              1283.0243
 Red. masses --     1.5610                 1.7473                 2.7324
 Frc consts  --     1.0324                 1.1727                 2.6501
 IR Inten    --     1.8013                 4.4918               116.9829
 Raman Activ --     1.3623                 5.3924                 6.4535
 Depolar (P) --     0.7500                 0.3089                 0.2809
 Depolar (U) --     0.8571                 0.4720                 0.4386
  Atom  AN      X      Y      Z        X      Y      Z        X      Y      Z
     1   6     0.00   0.00   0.21    -0.05   0.00   0.00    -0.19   0.25   0.00
     2   7     0.00   0.00  -0.04     0.19   0.06   0.00     0.12  -0.19   0.00
     3   8     0.00   0.00  -0.05    -0.12  -0.02   0.00     0.01  -0.04   0.00
     4   1     0.00   0.00  -0.15    -0.43  -0.02   0.00     0.80  -0.12   0.00
     5   1     0.00   0.00  -0.01     0.61  -0.53   0.00    -0.02   0.04   0.00
     6   1     0.00   0.00  -0.96    -0.33  -0.01   0.00    -0.36   0.26   0.00
                     7                      8                      9
                     A                      A                      A
 Frequencies --  1427.1444              1626.1859              1818.5102
 Red. masses --     1.2144                 1.2424                 7.7913
 Frc consts  --     1.4573                 1.9358                15.1806
 IR Inten    --     5.1095                71.7976               457.8723
 Raman Activ --     5.8475                 3.5788                13.6961
 Depolar (P) --     0.2864                 0.4908                 0.3389
 Depolar (U) --     0.4452                 0.6585                 0.5063
  Atom  AN      X      Y      Z        X      Y      Z        X      Y      Z
     1   6     0.04  -0.07   0.00     0.00   0.05   0.00     0.57   0.27   0.00
     2   7    -0.02  -0.03   0.00     0.11  -0.06   0.00    -0.10  -0.02   0.00
     3   8     0.05   0.07   0.00    -0.03  -0.02   0.00    -0.33  -0.20   0.00
     4   1    -0.05  -0.03   0.00    -0.64  -0.13   0.00     0.39   0.04   0.00
     5   1    -0.12   0.11   0.00    -0.38   0.63   0.00    -0.10  -0.03   0.00
     6   1    -0.97  -0.08   0.00     0.05   0.06   0.00    -0.45   0.26   0.00
                    10                     11                     12
                     A                      A                      A
 Frequencies --  2981.4022              3607.0082              3743.3399
 Red. masses --     1.0861                 1.0456                 1.1050
 Frc consts  --     5.6880                 8.0151                 9.1229
 IR Inten    --    78.9871                45.8020                53.5171
 Raman Activ --   134.7300               121.5290                42.5022
 Depolar (P) --     0.2669                 0.0734                 0.6681
 Depolar (U) --     0.4214                 0.1368                 0.8010
  Atom  AN      X      Y      Z        X      Y      Z        X      Y      Z
     1   6     0.00   0.08   0.00     0.00   0.00   0.00     0.00   0.00   0.00
     2   7     0.00   0.00   0.00     0.04  -0.03   0.00     0.04   0.08   0.00
     3   8     0.00   0.00   0.00     0.00   0.00   0.00     0.00   0.00   0.00
     4   1     0.00   0.01   0.00    -0.08   0.79   0.00     0.07  -0.60   0.00
     5   1     0.00   0.01   0.00    -0.49  -0.35   0.00    -0.65  -0.46   0.00
     6   1     0.01  -1.00   0.00     0.00   0.00   0.00     0.00  -0.01   0.00

 -------------------
 - Thermochemistry -
 -------------------
 Temperature   298.150 Kelvin.  Pressure   1.00000 Atm.
 Atom     1 has atomic number  6 and mass  12.00000
 Atom     2 has atomic number  7 and mass  14.00307
 Atom     3 has atomic number  8 and mass  15.99491
 Atom     4 has atomic number  1 and mass   1.00783
 Atom     5 has atomic number  1 and mass   1.00783
 Atom     6 has atomic number  1 and mass   1.00783
 Molecular mass:    45.02146 amu.
 Principal axes and moments of inertia in atomic units:
                           1         2         3
     Eigenvalues --    24.41324 157.14609 181.55933
           X            0.99981  -0.01947  -0.00002
           Y            0.01947   0.99981  -0.00001
           Z            0.00002   0.00001   1.00000
 This molecule is an asymmetric top.
 Rotational symmetry number  1.
 Rotational temperatures (Kelvin)      3.54782     0.55117     0.47706
 Rotational constants (GHZ):          73.92468    11.48448     9.94023
 Zero-point vibrational energy     120218.2 (Joules/Mol)
                                   28.73283 (Kcal/Mol)
 Warning -- explicit consideration of   2 degrees of freedom as
           vibrations may cause significant error
 Vibrational temperatures:    390.81   826.58   919.92  1524.37  1535.60
          (Kelvin)           1845.98  2053.34  2339.72  2616.43  4289.57
                             5189.67  5385.82
 
 Zero-point correction=                           0.045789 (Hartree/Particle)
 Thermal correction to Energy=                    0.049473
 Thermal correction to Enthalpy=                  0.050417
 Thermal correction to Gibbs Free Energy=         0.021349
 Sum of electronic and zero-point Energies=           -169.852001
 Sum of electronic and thermal Energies=              -169.848317
 Sum of electronic and thermal Enthalpies=            -169.847373
 Sum of electronic and thermal Free Energies=         -169.876440
 
                     E (Thermal)             CV                S
                      KCal/Mol        Cal/Mol-Kelvin    Cal/Mol-Kelvin
 Total                   31.045             10.674             61.178
 Electronic               0.000              0.000              0.000
 Translational            0.889              2.981             37.339
 Rotational               0.889              2.981             21.171
 Vibrational             29.267              4.712              2.668
 Vibration     1          0.675              1.726              1.586
 Vibration     2          0.931              1.086              0.496
                       Q            Log10(Q)             Ln(Q)
 Total Bot       0.151403D-09         -9.819865        -22.611075
 Total V=0       0.174350D+12         11.241422         25.884330
 Vib (Bot)       0.134968D-20        -20.869770        -48.054421
 Vib (Bot)    1  0.710904D+00         -0.148189         -0.341218
 Vib (Bot)    2  0.266701D+00         -0.573976         -1.321629
 Vib (V=0)       0.155424D+01          0.191517          0.440984
 Vib (V=0)    1  0.136913D+01          0.136444          0.314175
 Vib (V=0)    2  0.106668D+01          0.028035          0.064553
 Electronic      0.100000D+01          0.000000          0.000000
 Translational   0.118737D+08          7.074585         16.289833
 Rotational      0.944757D+04          3.975320          9.153513
 ***** Axes restored to original set *****
 -------------------------------------------------------------------
 Center     Atomic                   Forces (Hartrees/Bohr)
 Number     Number              X              Y              Z
 -------------------------------------------------------------------
      1        6          -0.000025307    0.000026053    0.000000553
      2        7          -0.000007782   -0.000028410    0.000002015
      3        8           0.000021935   -0.000011458   -0.000000598
      4        1           0.000011879   -0.000001289   -0.000000665
      5        1          -0.000010054    0.000010438   -0.000001070
      6        1           0.000009329    0.000004667   -0.000000235
 -------------------------------------------------------------------
 Cartesian Forces:  Max     0.000028410 RMS     0.000013473

 GradGradGradGradGradGradGradGradGradGradGradGradGradGradGradGradGradGrad
 Berny optimization.
 Internal  Forces:  Max     0.000022124 RMS     0.000011757
 Search for a local minimum.
 Step number   1 out of a maximum of    2
 All quantities printed in internal units (Hartrees-Bohrs-Radians)
 Second derivative matrix not updated -- analytic derivatives used.
 The second derivative matrix:
                          R1        R2        R3        R4        R5
           R1           0.46254
           R2           0.09007   0.84979
           R3           0.01551   0.03368   0.31565
           R4           0.00824  -0.00179  -0.00039   0.47732
           R5           0.00372  -0.00108   0.00048  -0.00221   0.48610
           A1           0.02041   0.03335  -0.01538  -0.00737   0.00660
           A2           0.01070  -0.04393   0.01380   0.00652  -0.00386
           A3          -0.03111   0.01058   0.00158   0.00085  -0.00274
           A4           0.00289  -0.00015   0.00223   0.00794  -0.00883
           A5           0.00946   0.00364   0.00002  -0.01024   0.00362
           A6          -0.01235  -0.00349  -0.00225   0.00230   0.00521
           D1           0.00001   0.00000   0.00000   0.00000   0.00000
           D2          -0.00001   0.00000   0.00000   0.00000   0.00000
           D3           0.00001   0.00000   0.00000   0.00000   0.00000
           D4          -0.00001   0.00000   0.00000   0.00000   0.00000
                          A1        A2        A3        A4        A5
           A1           0.17053
           A2          -0.08457   0.11849
           A3          -0.08596  -0.03392   0.11988
           A4          -0.02258   0.01815   0.00444   0.07550
           A5           0.02089  -0.01468  -0.00620  -0.04102   0.07825
           A6           0.00170  -0.00346   0.00177  -0.03448  -0.03723
           D1           0.00000   0.00000   0.00000   0.00000   0.00000
           D2           0.00000   0.00000   0.00000   0.00000   0.00000
           D3           0.00000   0.00000   0.00000   0.00000   0.00000
           D4           0.00000   0.00000   0.00000   0.00000   0.00000
                          A6        D1        D2        D3        D4
           A6           0.07171
           D1           0.00000   0.02803
           D2           0.00000   0.02771   0.03114
           D3           0.00000  -0.01611  -0.02174   0.02900
           D4           0.00000  -0.01642  -0.01832   0.02336   0.02147
     Eigenvalues ---    0.00296   0.01686   0.08981   0.10180   0.10948
     Eigenvalues ---    0.14971   0.25189   0.32148   0.44710   0.47993
     Eigenvalues ---    0.48775   0.876611000.000001000.000001000.00000
 Angle between quadratic step and forces=  60.88 degrees.
 Linear search not attempted -- first point.
 Iteration  1 RMS(Cart)=  0.00012148 RMS(Int)=  0.00000003
 Iteration  2 RMS(Cart)=  0.00000002 RMS(Int)=  0.00000001
 Variable       Old X    -DE/DX   Delta X   Delta X   Delta X     New X
                                 (Linear)    (Quad)   (Total)
    R1        2.55492   0.00000   0.00000   0.00002   0.00002   2.55494
    R2        2.27923  -0.00001   0.00000  -0.00002  -0.00002   2.27920
    R3        2.08282   0.00001   0.00000   0.00002   0.00002   2.08284
    R4        1.90036   0.00000   0.00000   0.00000   0.00000   1.90036
    R5        1.89473   0.00000   0.00000   0.00000   0.00000   1.89472
    A1        2.17639  -0.00002   0.00000  -0.00005  -0.00005   2.17634
    A2        1.96854   0.00000   0.00000  -0.00007  -0.00007   1.96847
    A3        2.13825   0.00002   0.00000   0.00012   0.00012   2.13837
    A4        2.08145   0.00002   0.00000   0.00017   0.00017   2.08162
    A5        2.11675  -0.00002   0.00000  -0.00018  -0.00018   2.11658
    A6        2.08498   0.00000   0.00000   0.00001   0.00001   2.08499
    D1       -0.00020   0.00000   0.00000   0.00020   0.00020   0.00000
    D2       -3.14133   0.00000   0.00000  -0.00026  -0.00026  -3.14159
    D3        3.14142   0.00000   0.00000   0.00018   0.00018   3.14159
    D4        0.00029   0.00000   0.00000  -0.00029  -0.00029   0.00000
         Item               Value     Threshold  Converged?
 Maximum Force            0.000022     0.000450     YES
 RMS     Force            0.000012     0.000300     YES
 Maximum Displacement     0.000218     0.001800     YES
 RMS     Displacement     0.000121     0.001200     YES
 Predicted change in Energy=-6.140100D-09
 Optimization completed.
    -- Stationary point found.
                           ----------------------------
                           !   Optimized Parameters   !
                           ! (Angstroms and Degrees)  !
 --------------------------                            --------------------------
 ! Name  Definition              Value          Derivative Info.                !
 --------------------------------------------------------------------------------
 ! R1    R(1,2)                  1.352          -DE/DX =    0.0                 !
 ! R2    R(1,3)                  1.2061         -DE/DX =    0.0                 !
 ! R3    R(1,6)                  1.1022         -DE/DX =    0.0                 !
 ! R4    R(2,4)                  1.0056         -DE/DX =    0.0                 !
 ! R5    R(2,5)                  1.0026         -DE/DX =    0.0                 !
 ! A1    A(2,1,3)              124.698          -DE/DX =    0.0                 !
 ! A2    A(2,1,6)              112.789          -DE/DX =    0.0                 !
 ! A3    A(3,1,6)              122.5129         -DE/DX =    0.0                 !
 ! A4    A(1,2,4)              119.2581         -DE/DX =    0.0                 !
 ! A5    A(1,2,5)              121.2811         -DE/DX =    0.0                 !
 ! A6    A(4,2,5)              119.4608         -DE/DX =    0.0                 !
 ! D1    D(3,1,2,4)             -0.0115         -DE/DX =    0.0                 !
 ! D2    D(3,1,2,5)           -179.9848         -DE/DX =    0.0                 !
 ! D3    D(6,1,2,4)            179.9898         -DE/DX =    0.0                 !
 ! D4    D(6,1,2,5)              0.0165         -DE/DX =    0.0                 !
 --------------------------------------------------------------------------------
 GradGradGradGradGradGradGradGradGradGradGradGradGradGradGradGradGradGrad

 1\1\GINC-CLODOMIRA\Freq\RCAM-B3LYP\Aug-CC-pVTZ\C1H3N1O1\DIEGOA\22-Oct-
 2019\0\\#N Geom=AllCheck Guess=TCheck SCRF=Check GenChk RCAM-B3LYP/Aug
 -CC-pVTZ Freq\\Title\\0,1\C,-0.1487608968,0.3901828122,0.0000077601\N,
 1.0857242359,-0.1611442013,-0.0000056842\O,-1.1800331808,-0.2352687489
 ,-0.0000155802\H,1.1767326742,-1.1626436092,0.0001386655\H,1.910509971
 7,0.4089671979,0.0002424307\H,-0.1242028042,1.4920895494,0.0000194081\
 \Version=EM64L-G09RevA.01\State=1-A\HF=-169.8977894\RMSD=3.974e-10\RMS
 F=1.347e-05\ZeroPoint=0.0457887\Thermal=0.0494726\Dipole=1.5321707,0.3
 637852,0.0002595\DipoleDeriv=2.1097773,0.042792,-0.000005,0.0238277,0.
 8953211,0.0000036,0.0000109,-0.0000109,0.22815,-1.1524437,0.1656653,0.
 0000629,0.4989842,-0.3450302,0.000002,0.0002072,-0.0000142,-0.5731408,
 -1.3248419,-0.1578192,-0.0000022,-0.4624218,-0.6747626,0.0000001,-0.00
 00334,0.0000037,-0.402442,0.1439351,-0.0302762,-0.0000188,-0.0165498,0
 .1957475,0.0000202,-0.0000681,0.0000393,0.3166474,0.1922085,0.0246689,
 -0.000032,0.0079586,0.141725,-0.0000201,-0.0001098,-0.0000135,0.330730
 6,0.0313646,-0.0450308,-0.0000049,-0.0517988,-0.2130008,-0.000006,-0.0
 000068,-0.0000043,0.1000549\Polar=35.0562174,0.8094737,27.4940902,0.00
 02361,0.0000636,19.9596107\PolarDeriv=5.5415669,2.7048603,0.0366727,0.
 0002092,0.0000899,-1.8703221,6.5158942,-0.4136577,-10.1680445,-0.00019
 99,0.0000571,1.1979597,0.0000204,0.0000926,-0.0000401,0.1025368,1.1386
 713,0.0001042,-1.9229778,-2.9796462,-2.0601222,-0.0017016,-0.0002868,2
 .6294211,-2.4469071,-1.1956455,4.8868941,-0.0002051,-0.0011977,-1.0410
 349,-0.0016815,-0.0003392,-0.0012686,2.9511506,-0.7531201,-0.0003837,-
 13.0738032,-1.2964044,-0.2336387,0.0000234,0.000025,-1.8746858,-5.5595
 496,-3.1573318,-1.0010557,0.0000512,-0.0000802,-1.0593766,-0.0002733,0
 .0000185,-0.0000242,-3.4904495,-1.6506069,-0.0001557,1.6099143,-1.0234
 427,0.1451338,0.0002076,-0.0001452,0.1941098,-2.8752023,2.2499546,-7.2
 844736,-0.0003881,0.0006705,-1.2074358,0.000285,-0.0003682,0.0007818,0
 .1100577,-0.4824461,0.0001256,7.5394808,1.4380298,1.8057547,0.0012532,
 0.0003289,0.9053824,3.6116582,2.2226311,2.23367,0.0006986,0.0004828,0.
 5892908,0.0016944,0.0005731,0.0004809,0.2910993,0.1241379,0.0003207,0.
 3058191,1.1566032,0.3061998,0.0000082,-0.0000119,0.0160947,0.7541065,0
 .2940494,11.3330095,0.0000433,0.0000674,1.5205968,-0.000045,0.0000232,
 0.0000702,0.0356051,1.6233639,-0.0000112\HyperPolar=30.5904767,28.9283
 643,37.6450422,31.4605734,0.0007202,0.0008428,0.0016992,29.9190918,2.6
 640754,-0.0003576\PG=C01 [X(C1H3N1O1)]\NImag=0\\0.90436657,0.16449375,
 0.78740588,0.00002091,0.00001093,0.19329659,-0.29532387,0.10754247,0.0
 0000393,0.81672135,0.08531392,-0.20981124,-0.00000780,0.05103026,0.849
 06796,-0.00002369,0.00000108,-0.04763418,0.00012971,-0.00000627,0.0205
 9368,-0.54288053,-0.28994342,-0.00001302,-0.10254509,-0.01937014,0.000
 00296,0.65406298,-0.28056403,-0.30641955,-0.00000904,-0.00896841,0.043
 50364,0.00000445,0.33270201,0.28473631,-0.00001247,-0.00000744,-0.0748
 2207,-0.00000109,0.00000174,0.01976115,0.00001362,0.00000857,0.0326977
 8,0.00876936,0.03848904,-0.00000563,-0.07920399,0.03314364,-0.00001568
 ,0.00203262,-0.00640666,0.00000137,0.06381507,0.00387687,-0.01387181,0
 .00000296,0.03112745,-0.45494959,0.00005600,-0.00322380,0.00158088,-0.
 00000099,-0.04054243,0.47336291,0.00000683,-0.00000401,0.00190819,-0.0
 0002093,0.00007750,-0.00662168,-0.00000234,-0.00000113,-0.00574009,0.0
 0001271,-0.00006191,0.00903959,-0.01533459,-0.02551133,-0.00000660,-0.
 33882298,-0.18573413,-0.00009215,-0.00467916,0.00529027,-0.00000071,0.
 00954393,0.00647226,0.00000301,0.34836012,0.01091665,0.01720919,0.0000
 0560,-0.18651607,-0.20958665,-0.00005533,0.00465719,-0.00050599,-0.000
 00140,-0.02710128,-0.00666685,-0.00001002,0.19842830,0.20025520,0.0000
 1022,0.00000043,-0.00933505,-0.00011203,-0.00006421,0.00169141,-0.0000
 0078,-0.00000142,0.00793400,0.00000734,0.00000379,-0.00480209,0.000095
 19,0.00006094,0.00605502,-0.05959694,0.00492949,0.00000040,-0.00082543
 ,0.03561645,-0.00000115,-0.00599083,-0.04205319,-0.00000072,-0.0049569
 8,0.00228964,0.00000072,0.00093268,-0.00038478,0.00000006,0.07043750,0
 .01596284,-0.27451247,-0.00000264,0.00578430,-0.01822411,0.00000007,-0
 .02482185,-0.02289528,-0.00000048,0.00241769,0.00054447,-0.00000043,0.
 00105463,-0.00070490,0.00000047,-0.00039762,0.31579229,-0.00000182,-0.
 00000099,-0.06341348,0.00000040,-0.00000096,0.01220962,-0.00000044,-0.
 00000143,0.02016924,-0.00000011,0.00000016,0.00621607,0.00000126,0.000
 00021,-0.00154329,0.00000070,0.00000301,0.02636183\\0.00002531,-0.0000
 2605,-0.00000055,0.00000778,0.00002841,-0.00000202,-0.00002194,0.00001
 146,0.00000060,-0.00001188,0.00000129,0.00000066,0.00001005,-0.0000104
 4,0.00000107,-0.00000933,-0.00000467,0.00000023\\\@


 TO ERR IS HUMAN - AND TO BLAME IT ON A COMPUTER IS EVEN MORE SO.
 Job cpu time:  0 days  0 hours 35 minutes 32.2 seconds.
 File lengths (MBytes):  RWF=     36 Int=      0 D2E=      0 Chk=      4 Scr=      1
 Normal termination of Gaussian 09 at Tue Oct 22 19:26:53 2019.
