 Entering Gaussian System, Link 0=g09
 Input=td1-opt.com
 Output=td1-opt.log
 Initial command:
 /home/diegoa/progs/g09/l1.exe /home/diegoa/g09scratch/Gau-17582.inp -scrdir=/home/diegoa/g09scratch/
 Default is to use a total of   4 processors:
                                4 via shared-memory
                                1 via Linda
 Entering Link 1 = /home/diegoa/progs/g09/l1.exe PID=     17604.
  
 Copyright (c) 1988,1990,1992,1993,1995,1998,2003,2009, Gaussian, Inc.
                  All Rights Reserved.
  
 This is part of the Gaussian(R) 09 program.  It is based on
 the Gaussian(R) 03 system (copyright 2003, Gaussian, Inc.),
 the Gaussian(R) 98 system (copyright 1998, Gaussian, Inc.),
 the Gaussian(R) 94 system (copyright 1995, Gaussian, Inc.),
 the Gaussian 92(TM) system (copyright 1992, Gaussian, Inc.),
 the Gaussian 90(TM) system (copyright 1990, Gaussian, Inc.),
 the Gaussian 88(TM) system (copyright 1988, Gaussian, Inc.),
 the Gaussian 86(TM) system (copyright 1986, Carnegie Mellon
 University), and the Gaussian 82(TM) system (copyright 1983,
 Carnegie Mellon University). Gaussian is a federally registered
 trademark of Gaussian, Inc.
  
 This software contains proprietary and confidential information,
 including trade secrets, belonging to Gaussian, Inc.
  
 This software is provided under written license and may be
 used, copied, transmitted, or stored only in accord with that
 written license.
  
 The following legend is applicable only to US Government
 contracts under FAR:
  
                    RESTRICTED RIGHTS LEGEND
  
 Use, reproduction and disclosure by the US Government is
 subject to restrictions as set forth in subparagraphs (a)
 and (c) of the Commercial Computer Software - Restricted
 Rights clause in FAR 52.227-19.
  
 Gaussian, Inc.
 340 Quinnipiac St., Bldg. 40, Wallingford CT 06492
  
  
 ---------------------------------------------------------------
 Warning -- This program may not be used in any manner that
 competes with the business of Gaussian, Inc. or will provide
 assistance to any competitor of Gaussian, Inc.  The licensee
 of this program is prohibited from giving any competitor of
 Gaussian, Inc. access to this program.  By using this program,
 the user acknowledges that Gaussian, Inc. is engaged in the
 business of creating and licensing software in the field of
 computational chemistry and represents and warrants to the
 licensee that it is not a competitor of Gaussian, Inc. and that
 it will not use this program in any manner prohibited above.
 ---------------------------------------------------------------
  

 Cite this work as:
 Gaussian 09, Revision A.01,
 M. J. Frisch, G. W. Trucks, H. B. Schlegel, G. E. Scuseria, 
 M. A. Robb, J. R. Cheeseman, G. Scalmani, V. Barone, B. Mennucci, 
 G. A. Petersson, H. Nakatsuji, M. Caricato, X. Li, H. P. Hratchian, 
 A. F. Izmaylov, J. Bloino, G. Zheng, J. L. Sonnenberg, M. Hada, 
 M. Ehara, K. Toyota, R. Fukuda, J. Hasegawa, M. Ishida, T. Nakajima, 
 Y. Honda, O. Kitao, H. Nakai, T. Vreven, J. A. Montgomery, Jr., 
 J. E. Peralta, F. Ogliaro, M. Bearpark, J. J. Heyd, E. Brothers, 
 K. N. Kudin, V. N. Staroverov, R. Kobayashi, J. Normand, 
 K. Raghavachari, A. Rendell, J. C. Burant, S. S. Iyengar, J. Tomasi, 
 M. Cossi, N. Rega, J. M. Millam, M. Klene, J. E. Knox, J. B. Cross, 
 V. Bakken, C. Adamo, J. Jaramillo, R. Gomperts, R. E. Stratmann, 
 O. Yazyev, A. J. Austin, R. Cammi, C. Pomelli, J. W. Ochterski, 
 R. L. Martin, K. Morokuma, V. G. Zakrzewski, G. A. Voth, 
 P. Salvador, J. J. Dannenberg, S. Dapprich, A. D. Daniels, 
 O. Farkas, J. B. Foresman, J. V. Ortiz, J. Cioslowski, 
 and D. J. Fox, Gaussian, Inc., Wallingford CT, 2009.
 
 ******************************************
 Gaussian 09:  EM64L-G09RevA.01  8-May-2009
                25-Oct-2019 
 ******************************************
 %chk=td1-opt.chk
 %NProcShared=4
 Will use up to    4 processors via shared memory.
 Default route:  MP2=Direct MaxDisk=1000GB DenFit
 --------------------------------------------------------
 # cam-b3lyp/aug-cc-pvtz opt nosymm td(root=1,nstates=20)
 --------------------------------------------------------
 1/14=-1,18=20,19=15,26=3,38=1/1,3;
 2/9=110,12=2,15=1,17=6,18=5,40=1/2;
 3/5=16,6=1,7=10,11=2,16=1,25=1,30=1,71=1,74=-40,82=47/1,2,8,3;
 4//1;
 5/5=2,38=5/2;
 8/6=1,10=1,107=1,108=20/1;
 9/8=1,15=2,41=20,42=1/14;
 10/5=4,31=1/2;
 6/7=2,8=2,9=2,10=2/1;
 7/12=6,13=5,14=1,30=1/1,2,3,16;
 1/14=-1,18=20,19=15/3(2);
 2/9=110,15=1/2;
 99//99;
 2/9=110,15=1/2;
 3/5=16,6=1,7=10,11=2,16=1,25=1,30=1,71=1,74=-40,82=47/1,2,8,3;
 4/5=5,16=3/1;
 5/5=2,38=5/2;
 8/6=1,10=1,107=1,108=20/1;
 9/8=1,15=2,41=20,42=1,49=4/14;
 10/5=4,31=1/2;
 7/12=6,13=5,14=1,30=1/1,2,3,16;
 1/14=-1,18=20,19=15/3(-8);
 2/9=110,15=1/2;
 6/7=2,8=2,9=2,10=2/1;
 99//99;
 -----
 Title
 -----
 Symbolic Z-matrix:
 Charge =  0 Multiplicity = 1
 6                    -0.16086   0.38626  0. 
 7                     1.07717  -0.15707  -0.00002 
 8                    -1.18806  -0.24585  -0.00003 
 1                     1.17465  -1.15796   0.00013 
 1                     1.89825   0.41836   0.00023 
 1                    -0.14343   1.4883    0.00001 
 

 GradGradGradGradGradGradGradGradGradGradGradGradGradGradGradGradGradGrad
 Berny optimization.
 Initialization pass.
                           ----------------------------
                           !    Initial Parameters    !
                           ! (Angstroms and Degrees)  !
 --------------------------                            --------------------------
 ! Name  Definition              Value          Derivative Info.                !
 --------------------------------------------------------------------------------
 ! R1    R(1,2)                  1.352          estimate D2E/DX2                !
 ! R2    R(1,3)                  1.2061         estimate D2E/DX2                !
 ! R3    R(1,6)                  1.1022         estimate D2E/DX2                !
 ! R4    R(2,4)                  1.0056         estimate D2E/DX2                !
 ! R5    R(2,5)                  1.0026         estimate D2E/DX2                !
 ! A1    A(2,1,3)              124.6981         estimate D2E/DX2                !
 ! A2    A(2,1,6)              112.789          estimate D2E/DX2                !
 ! A3    A(3,1,6)              122.5129         estimate D2E/DX2                !
 ! A4    A(1,2,4)              119.258          estimate D2E/DX2                !
 ! A5    A(1,2,5)              121.2811         estimate D2E/DX2                !
 ! A6    A(4,2,5)              119.4609         estimate D2E/DX2                !
 ! D1    D(3,1,2,4)             -0.0114         estimate D2E/DX2                !
 ! D2    D(3,1,2,5)           -179.9848         estimate D2E/DX2                !
 ! D3    D(6,1,2,4)            179.9898         estimate D2E/DX2                !
 ! D4    D(6,1,2,5)              0.0165         estimate D2E/DX2                !
 --------------------------------------------------------------------------------
 Trust Radius=3.00D-01 FncErr=1.00D-07 GrdErr=1.00D-06
 Number of steps in this run=  25 maximum allowed number of steps= 100.
 GradGradGradGradGradGradGradGradGradGradGradGradGradGradGradGradGradGrad

                          Input orientation:                          
 ---------------------------------------------------------------------
 Center     Atomic      Atomic             Coordinates (Angstroms)
 Number     Number       Type             X           Y           Z
 ---------------------------------------------------------------------
      1          6           0       -0.160857    0.386261   -0.000004
      2          7           0        1.077168   -0.157071   -0.000017
      3          8           0       -1.188063   -0.245846   -0.000027
      4          1           0        1.174650   -1.157961    0.000127
      5          1           0        1.898249    0.418362    0.000231
      6          1           0       -0.143425    1.488304    0.000008
 ---------------------------------------------------------------------
                    Distance matrix (angstroms):
                    1          2          3          4          5
     1  C    0.000000
     2  N    1.352004   0.000000
     3  O    1.206114   2.266970   0.000000
     4  H    2.041617   1.005626   2.532660   0.000000
     5  H    2.059356   1.002645   3.156975   1.734471   0.000000
     6  H    1.102181   2.048684   2.024486   2.956356   2.305040
                    6
     6  H    0.000000
 Symmetry turned off by external request.
 Stoichiometry    CH3NO
 Framework group  C1[X(CH3NO)]
 Deg. of freedom    12
 Full point group                 C1      NOp   1
 Rotational constants (GHZ):     73.9247235     11.4844788      9.9402277
 Standard basis: Aug-CC-pVTZ (5D, 7F)
 Integral buffers will be    131072 words long.
 Raffenetti 2 integral format.
 Two-electron integral symmetry is turned off.
   207 basis functions,   297 primitive gaussians,   240 cartesian basis functions
    12 alpha electrons       12 beta electrons
       nuclear repulsion energy        71.5517341799 Hartrees.
 NAtoms=    6 NActive=    6 NUniq=    6 SFac= 7.50D-01 NAtFMM=   80 NAOKFM=F Big=F
 Standard density basis: Auto (5D, 7F)
   591 Density fitting functions
 One-electron integrals computed using PRISM.
 NBasis=   207 RedAO= T  NBF=   207
 NBsUse=   207 1.00D-06 NBFU=   207
 Harris functional with IExCor=20419 diagonalized for initial guess.
 ExpMin= 2.53D-02 ExpMax= 1.53D+04 ExpMxC= 5.22D+02 IAcc=3 IRadAn=         0 AccDes= 0.00D+00
 HarFok:  IExCor=20419 AccDes= 0.00D+00 IRadAn=         0 IDoV= 1
 ScaDFX=  1.000000  1.000000  1.000000  1.000000
 FoFCou: FMM=F IPFlag=           0 FMFlag=      100000 FMFlg1=           0
         NFxFlg=           0 DoJE=T BraDBF=F KetDBF=T FulRan=T
         Omega=  0.000000  0.000000  1.000000  0.000000  0.000000 ICntrl=     500 IOpCl=  0
         NMat0=    1 NMatS0=    1 NMatT0=    0 NMatD0=    1 NMtDS0=    0 NMtDT0=    0
         I1Cent=           4 NGrid=           0.
 Symmetry not used in FoFCou.
 Requested convergence on RMS density matrix=1.00D-08 within 128 cycles.
 Requested convergence on MAX density matrix=1.00D-06.
 Requested convergence on             energy=1.00D-06.
 No special actions if energy rises.
 FoFJK:  IHMeth= 1 ICntrl=     0 DoSepK=T KAlg= 1 I1Cent= 0 FoldK=F
 FoFJK:  IHMeth= 1 ICntrl=     0 DoSepK=T KAlg= 1 I1Cent= 0 FoldK=F
 FoFJK:  IHMeth= 1 ICntrl=     0 DoSepK=T KAlg= 1 I1Cent= 0 FoldK=F
 FoFJK:  IHMeth= 1 ICntrl=     0 DoSepK=T KAlg= 1 I1Cent= 0 FoldK=F
 FoFJK:  IHMeth= 1 ICntrl=     0 DoSepK=T KAlg= 1 I1Cent= 0 FoldK=F
 FoFJK:  IHMeth= 1 ICntrl=     0 DoSepK=T KAlg= 1 I1Cent= 0 FoldK=F
 FoFJK:  IHMeth= 1 ICntrl=     0 DoSepK=T KAlg= 1 I1Cent= 0 FoldK=F
 FoFJK:  IHMeth= 1 ICntrl=     0 DoSepK=T KAlg= 1 I1Cent= 0 FoldK=F
 FoFJK:  IHMeth= 1 ICntrl=     0 DoSepK=T KAlg= 1 I1Cent= 0 FoldK=F
 FoFJK:  IHMeth= 1 ICntrl=     0 DoSepK=T KAlg= 1 I1Cent= 0 FoldK=F
 FoFJK:  IHMeth= 1 ICntrl=     0 DoSepK=T KAlg= 1 I1Cent= 0 FoldK=F
 SCF Done:  E(RCAM-B3LYP) =  -169.897789354     A.U. after   11 cycles
             Convg  =    0.3076D-08             -V/T =  2.0055
 ExpMin= 2.53D-02 ExpMax= 1.53D+04 ExpMxC= 5.22D+02 IAcc=3 IRadAn=         5 AccDes= 0.00D+00
 HarFok:  IExCor=  205 AccDes= 0.00D+00 IRadAn=         5 IDoV=-2
 ScaDFX=  1.000000  1.000000  1.000000  1.000000
 Range of M.O.s used for correlation:     4   207
 NBasis=   207 NAE=    12 NBE=    12 NFC=     3 NFV=     0
 NROrb=    204 NOA=     9 NOB=     9 NVA=   195 NVB=   195

 **** Warning!!: The largest alpha MO coefficient is  0.30889685D+02

 Would need an additional   658600000 words for in-memory AO integral storage.
    80 initial guesses have been made.
 Convergence on wavefunction:    0.000001000000000
 Iteration     1 Dimension    80 NMult    80
 CISAX will form    80 AO SS matrices at one time.
 FoFJK:  IHMeth= 1 ICntrl=     0 DoSepK=T KAlg= 1 I1Cent= 0 FoldK=F
 FoFJK:  IHMeth= 1 ICntrl=     0 DoSepK=T KAlg= 1 I1Cent= 0 FoldK=F
 New state      1 was old state      6
 New state      3 was old state      1
 New state      4 was old state      3
 New state      6 was old state      4
 New state      7 was old state      8
 New state      8 was old state      7
 New state      9 was old state     11
 New state     10 was old state      9
 New state     11 was old state     12
 New state     12 was old state     13
 New state     13 was old state     14
 New state     14 was old state     15
 New state     15 was old state     20
 New state     16 was old state     17
 New state     17 was old state     16
 New state     19 was old state     10
 New state     20 was old state     19
 Iteration     2 Dimension   120 NMult   120
 FoFJK:  IHMeth= 1 ICntrl=     0 DoSepK=T KAlg= 1 I1Cent= 0 FoldK=F
 FoFJK:  IHMeth= 1 ICntrl=     0 DoSepK=T KAlg= 1 I1Cent= 0 FoldK=F
 New state      7 was old state      9
 New state      8 was old state      7
 New state      9 was old state      8
 New state     12 was old state     13
 New state     13 was old state     12
 New state     18 was old state     19
 New state     19 was old state     18
 Iteration     3 Dimension   160 NMult   160
 FoFJK:  IHMeth= 1 ICntrl=     0 DoSepK=T KAlg= 1 I1Cent= 0 FoldK=F
 FoFJK:  IHMeth= 1 ICntrl=     0 DoSepK=T KAlg= 1 I1Cent= 0 FoldK=F
 Iteration     4 Dimension   200 NMult   200
 FoFJK:  IHMeth= 1 ICntrl=     0 DoSepK=T KAlg= 1 I1Cent= 0 FoldK=F
 FoFJK:  IHMeth= 1 ICntrl=     0 DoSepK=T KAlg= 1 I1Cent= 0 FoldK=F
 Iteration     5 Dimension   240 NMult   240
 FoFJK:  IHMeth= 1 ICntrl=     0 DoSepK=T KAlg= 1 I1Cent= 0 FoldK=F
 FoFJK:  IHMeth= 1 ICntrl=     0 DoSepK=T KAlg= 1 I1Cent= 0 FoldK=F
 Iteration     6 Dimension   280 NMult   280
 FoFJK:  IHMeth= 1 ICntrl=     0 DoSepK=T KAlg= 1 I1Cent= 0 FoldK=F
 FoFJK:  IHMeth= 1 ICntrl=     0 DoSepK=T KAlg= 1 I1Cent= 0 FoldK=F
 Iteration     7 Dimension   318 NMult   318
 FoFJK:  IHMeth= 1 ICntrl=     0 DoSepK=T KAlg= 1 I1Cent= 0 FoldK=F
 FoFJK:  IHMeth= 1 ICntrl=     0 DoSepK=T KAlg= 1 I1Cent= 0 FoldK=F
 Davidson failed to converge within maximum sub-space dimensions.
  Restart with updated initial guess:
 Iteration     1 Dimension    54 NMult   372
 FoFJK:  IHMeth= 1 ICntrl=     0 DoSepK=T KAlg= 1 I1Cent= 0 FoldK=F
 FoFJK:  IHMeth= 1 ICntrl=     0 DoSepK=T KAlg= 1 I1Cent= 0 FoldK=F
 Iteration     2 Dimension    94 NMult   412
 FoFJK:  IHMeth= 1 ICntrl=     0 DoSepK=T KAlg= 1 I1Cent= 0 FoldK=F
 FoFJK:  IHMeth= 1 ICntrl=     0 DoSepK=T KAlg= 1 I1Cent= 0 FoldK=F
 ***********************************************************************
 Excited states from <AA,BB:AA,BB> singles matrix:
 ***********************************************************************
 
 Ground to excited state transition electric dipole moments (Au):
       state          X           Y           Z        Dip. S.      Osc.
         1         0.0000      0.0000      0.0758      0.0057      0.0008
         2        -0.0008     -0.0003      0.3229      0.1043      0.0172
         3        -0.1623     -0.0754     -0.0016      0.0320      0.0053
         4         0.1879      0.5805      0.0000      0.3723      0.0663
         5         0.0000     -0.0002      0.0498      0.0025      0.0005
         6        -0.4578      0.4145      0.0000      0.3814      0.0714
         7         1.0965      0.0056      0.0000      1.2023      0.2306
         8         0.0001     -0.0001     -0.2549      0.0650      0.0129
         9        -0.0002     -0.0001      0.0305      0.0009      0.0002
        10        -0.2043     -0.0137      0.0000      0.0419      0.0087
        11        -0.0238     -0.2260      0.0000      0.0516      0.0110
        12         0.0378     -0.0490     -0.0001      0.0038      0.0008
        13         0.0000      0.0000      0.1776      0.0315      0.0070
        14         0.0000      0.0000     -0.1523      0.0232      0.0052
        15         0.3772      0.0824      0.0001      0.1491      0.0345
        16         0.0000     -0.0002      0.0618      0.0038      0.0009
        17         0.0638     -0.2702     -0.0002      0.0771      0.0183
        18        -0.3584      0.1296     -0.0002      0.1452      0.0346
        19        -0.0002      0.0000      0.1008      0.0102      0.0024
        20         0.0001      0.0002     -0.1994      0.0398      0.0096
 Ground to excited state transition velocity dipole moments (Au):
       state          X           Y           Z        Dip. S.      Osc.
         1         0.0000      0.0000     -0.0166      0.0003      0.0009
         2         0.0002      0.0001     -0.0799      0.0064      0.0172
         3         0.0408      0.0183      0.0004      0.0020      0.0054
         4        -0.0501     -0.1551      0.0000      0.0266      0.0663
         5         0.0000      0.0001     -0.0137      0.0002      0.0005
         6         0.1283     -0.1168      0.0000      0.0301      0.0714
         7        -0.3140     -0.0019      0.0000      0.0986      0.2285
         8         0.0000      0.0000      0.0751      0.0056      0.0127
         9         0.0001      0.0000     -0.0081      0.0001      0.0001
        10         0.0613      0.0036      0.0000      0.0038      0.0080
        11         0.0088      0.0716      0.0000      0.0052      0.0109
        12        -0.0150      0.0146      0.0000      0.0004      0.0009
        13         0.0000      0.0000     -0.0596      0.0036      0.0072
        14         0.0000      0.0000      0.0522      0.0027      0.0054
        15        -0.1314     -0.0269      0.0000      0.0180      0.0345
        16         0.0000      0.0001     -0.0187      0.0004      0.0007
        17        -0.0249      0.0963      0.0001      0.0099      0.0186
        18         0.1269     -0.0450      0.0001      0.0181      0.0339
        19         0.0001      0.0000     -0.0341      0.0012      0.0022
        20         0.0000     -0.0001      0.0712      0.0051      0.0094
 Ground to excited state transition magnetic dipole moments (Au):
       state          X           Y           Z
         1        -0.9794     -0.4077      0.0000
         2         0.0221      0.3971      0.0012
         3         0.0000     -0.0019      0.2662
         4         0.0001      0.0000     -0.0407
         5         0.0214      0.0450      0.0001
         6        -0.0001      0.0001      0.1672
         7         0.0000      0.0000      0.6671
         8         0.0563      0.2074      0.0000
         9        -0.0429      0.3631     -0.0002
        10         0.0000     -0.0001      0.0653
        11         0.0000     -0.0001     -0.2351
        12         0.0000     -0.0001      0.3039
        13         0.1039     -0.3682      0.0001
        14        -0.0726     -0.4757     -0.0001
        15         0.0000      0.0000     -0.1430
        16         0.0873      0.0137      0.0002
        17        -0.0001     -0.0001      0.0469
        18         0.0000     -0.0001     -0.2203
        19        -0.0528     -0.1069     -0.0001
        20        -0.1098     -0.1578      0.0000
 <0|del|b> * <b|rxdel|0> + <0|del|b> * <b|delr+rdel|0>
 Rotatory Strengths (R) in cgs (10**-40 erg-esu-cm/Gauss)
       state          XX          YY          ZZ    R(velocity)
         1        -0.0013      0.0131      0.0094      0.0071
 Total R(velocity) tensor for State=          1
                 1             2             3 
      1  -0.130948D-02 -0.515682D-02  0.000000D+00
      2   0.678350D-03  0.131335D-01  0.000000D+00
      3  -0.236343D+02 -0.109771D+02  0.935708D-02
         2        -0.1429     -0.0351      0.0004     -0.0592
 Total R(velocity) tensor for State=          2
                 1             2             3 
      1  -0.142915D+00 -0.207442D+00 -0.554726D-03
      2  -0.225677D+00 -0.350908D-01 -0.571029D-03
      3  -0.667413D-01  0.572941D+00  0.439292D-03
         3         0.1485      0.0408      0.0034      0.0642
 Total R(velocity) tensor for State=          3
                 1             2             3 
      1   0.148505D+00  0.219042D+00 -0.259738D+02
      2   0.234298D+00  0.407730D-01 -0.265781D+02
      3  -0.229166D+01  0.510344D+01  0.335660D-02
         4         0.0058     -0.0066     -0.0061     -0.0023
 Total R(velocity) tensor for State=          4
                 1             2             3 
      1   0.578578D-02 -0.286648D-02 -0.616474D+02
      2   0.199965D-01 -0.661305D-02 -0.960176D+01
      3   0.515933D-01 -0.166615D-01 -0.607243D-02
         5         0.0028     -0.0006      0.0001      0.0008
 Total R(velocity) tensor for State=          5
                 1             2             3 
      1   0.280931D-02 -0.375521D-02 -0.159712D-04
      2  -0.148539D-01 -0.554191D-03 -0.894197D-05
      3  -0.195668D+01  0.196324D+00  0.544520D-04
         6        -0.0288     -0.0152     -0.0088     -0.0176
 Total R(velocity) tensor for State=          6
                 1             2             3 
      1  -0.287751D-01 -0.324476D-01  0.323063D+02
      2  -0.133203D-01 -0.151611D-01  0.203389D+02
      3   0.139409D+02  0.153111D+02 -0.875267D-02
         7         0.0022     -0.0032     -0.0241     -0.0084
 Total R(velocity) tensor for State=          7
                 1             2             3 
      1   0.224740D-02  0.575189D-02  0.366184D+03
      2   0.174843D-03 -0.324629D-02  0.248557D+02
      3  -0.242103D+00  0.394912D+02 -0.240639D-01
         8         0.0041     -0.0054      0.0039      0.0009
 Total R(velocity) tensor for State=          8
                 1             2             3 
      1   0.405360D-02  0.831806D-02  0.000000D+00
      2  -0.767661D-02 -0.535409D-02 -0.188156D-05
      3  -0.803643D-01 -0.188297D+02  0.391657D-02
         9         0.0145     -0.0036      0.0021      0.0043
 Total R(velocity) tensor for State=          9
                 1             2             3 
      1   0.144838D-01 -0.429909D-01  0.189147D-04
      2   0.105462D-02 -0.361196D-02  0.000000D+00
      3  -0.272507D+00  0.181596D+01  0.212105D-02
        10        -0.0020      0.0039      0.0010      0.0010
 Total R(velocity) tensor for State=         10
                 1             2             3 
      1  -0.203361D-02  0.373161D-02 -0.105056D+02
      2  -0.647396D-03  0.385799D-02 -0.243886D+01
      3  -0.112311D+01  0.191675D+02  0.102913D-02
        11        -0.0077     -0.0003     -0.0028     -0.0036
 Total R(velocity) tensor for State=         11
                 1             2             3 
      1  -0.772033D-02  0.127017D-02  0.204221D+01
      2  -0.719881D-02 -0.261204D-03 -0.732355D+01
      3   0.931219D+00 -0.114619D+00 -0.275521D-02
        12         0.0078      0.0134     -0.0011      0.0067
 Total R(velocity) tensor for State=         12
                 1             2             3 
      1   0.778603D-02 -0.152128D-02  0.383049D+01
      2  -0.441000D-02  0.133844D-01 -0.721092D+01
      3   0.226982D+01  0.233036D+01 -0.107760D-02
        13        -0.0052     -0.0037      0.0005     -0.0028
 Total R(velocity) tensor for State=         13
                 1             2             3 
      1  -0.517425D-02  0.191874D-02  0.000000D+00
      2   0.107788D-01 -0.370537D-02  0.100725D-05
      3   0.322353D+01 -0.205723D+01  0.464068D-03
        14         0.0038     -0.0075      0.0071      0.0011
 Total R(velocity) tensor for State=         14
                 1             2             3 
      1   0.378569D-02 -0.697060D-02 -0.157704D-05
      2   0.123222D-03 -0.750723D-02 -0.215969D-05
      3   0.111919D+02  0.199418D+02  0.708061D-02
        15         0.0028      0.0079     -0.0161     -0.0018
 Total R(velocity) tensor for State=         15
                 1             2             3 
      1   0.282079D-02 -0.969886D-02 -0.618299D+01
      2   0.165449D-03  0.792091D-02 -0.132616D+02
      3  -0.691193D-01  0.337383D+00 -0.161232D-01
        16        -0.0093     -0.0052      0.0081     -0.0022
 Total R(velocity) tensor for State=         16
                 1             2             3 
      1  -0.932534D-02 -0.164823D-02 -0.853580D-05
      2  -0.401746D-03 -0.522209D-02 -0.148844D-04
      3   0.279211D+01  0.245381D+01  0.808021D-02
        17        -0.0088     -0.0061      0.0047     -0.0034
 Total R(velocity) tensor for State=         17
                 1             2             3 
      1  -0.878904D-02  0.534163D-02 -0.130411D+02
      2   0.428765D-01 -0.613763D-02  0.295009D+02
      3   0.666278D+01  0.172288D+01  0.469054D-02
        18         0.0053     -0.0219      0.0036     -0.0043
 Total R(velocity) tensor for State=         18
                 1             2             3 
      1   0.531682D-02  0.309587D-01  0.113878D+02
      2   0.178739D-01 -0.219282D-01 -0.515681D+02
      3  -0.733965D+01 -0.206916D+02  0.360224D-02
        19         0.0009      0.0001     -0.0019     -0.0003
 Total R(velocity) tensor for State=         19
                 1             2             3 
      1   0.871685D-03  0.943750D-02  0.000000D+00
      2  -0.646269D-02  0.138481D-03 -0.143022D-04
      3  -0.122985D+01 -0.528831D+01 -0.187430D-02
        20         0.0114      0.0243     -0.0067      0.0097
 Total R(velocity) tensor for State=         20
                 1             2             3 
      1   0.114468D-01 -0.132044D-01 -0.774198D-05
      2  -0.513607D-01  0.243358D-01  0.124043D-05
      3  -0.489652D+01 -0.474092D+01 -0.665677D-02
 1/2[<0|r|b>*<b|rxdel|0> + (<0|rxdel|b>*<b|r|0>)*]
 Rotatory Strengths (R) in cgs (10**-40 erg-esu-cm/Gauss)
       state          XX          YY          ZZ     R(length)     R(au)
         1         0.0234     -0.0009     -0.0008      0.0072      0.0000
         2         0.0118      0.0966     -0.2840     -0.0585     -0.0001
         3        -0.0041     -0.0994      0.2941      0.0635      0.0001
         4        -0.0070      0.0004     -0.0003     -0.0023      0.0000
         5         0.0003      0.0073     -0.0053      0.0008      0.0000
         6        -0.0186     -0.0328     -0.0014     -0.0176      0.0000
         7        -0.0283     -0.0001      0.0032     -0.0084      0.0000
         8        -0.0040      0.0076     -0.0012      0.0008      0.0000
         9        -0.0071      0.0171      0.0033      0.0044      0.0000
        10         0.0051     -0.0006     -0.0015      0.0010      0.0000
        11         0.0003     -0.0170      0.0057     -0.0037      0.0000
        12         0.0003     -0.0045      0.0237      0.0065      0.0000
        13         0.0006      0.0083     -0.0167     -0.0026      0.0000
        14         0.0011      0.0156     -0.0124      0.0014      0.0000
        15        -0.0114      0.0009      0.0055     -0.0016      0.0000
        16         0.0015      0.0015     -0.0108     -0.0026      0.0000
        17         0.0037     -0.0195      0.0053     -0.0035      0.0000
        18         0.0094      0.0054     -0.0274     -0.0042      0.0000
        19        -0.0079      0.0012      0.0062     -0.0002      0.0000
        20         0.0070      0.0210      0.0014      0.0098      0.0000
  1/2[<0|del|b>*<b|r|0> + (<0|r|b>*<b|del|0>)*] (Au)
       state          X           Y           Z        Dip. S.   Osc.(frdel)
         1         0.0000      0.0000     -0.0013      0.0013      0.0008
         2         0.0000      0.0000     -0.0258      0.0258      0.0172
         3        -0.0066     -0.0014      0.0000      0.0080      0.0053
         4        -0.0094     -0.0901      0.0000      0.0995      0.0663
         5         0.0000      0.0000     -0.0007      0.0007      0.0005
         6        -0.0587     -0.0484      0.0000      0.1071      0.0714
         7        -0.3443      0.0000      0.0000      0.3443      0.2296
         8         0.0000      0.0000     -0.0192      0.0192      0.0128
         9         0.0000      0.0000     -0.0002      0.0002      0.0002
        10        -0.0125      0.0000      0.0000      0.0126      0.0084
        11        -0.0002     -0.0162      0.0000      0.0164      0.0109
        12        -0.0006     -0.0007      0.0000      0.0013      0.0009
        13         0.0000      0.0000     -0.0106      0.0106      0.0071
        14         0.0000      0.0000     -0.0080      0.0080      0.0053
        15        -0.0495     -0.0022      0.0000      0.0518      0.0345
        16         0.0000      0.0000     -0.0012      0.0012      0.0008
        17        -0.0016     -0.0260      0.0000      0.0276      0.0184
        18        -0.0455     -0.0058      0.0000      0.0513      0.0342
        19         0.0000      0.0000     -0.0034      0.0034      0.0023
        20         0.0000      0.0000     -0.0142      0.0142      0.0095
 Ground to excited state transition densities written to RWF  633

 Excitation energies and oscillator strengths:
 
 Excited state symmetry could not be determined.
 Excited State   1:      Singlet-?Sym    5.6578 eV  219.14 nm  f=0.0008  <S**2>=0.000
      12 -> 16         0.60835
      12 -> 17        -0.32589
      12 -> 22         0.10768
 This state for optimization and/or second-order correction.
 Copying the excited state density for this state as the 1-particle RhoCI density.
 
 Excited state symmetry could not be determined.
 Excited State   2:      Singlet-?Sym    6.7266 eV  184.32 nm  f=0.0172  <S**2>=0.000
      11 -> 13         0.66417
      11 -> 18         0.11126
      11 -> 19        -0.13488
      11 -> 20        -0.12128
 
 Excited state symmetry could not be determined.
 Excited State   3:      Singlet-?Sym    6.7506 eV  183.66 nm  f=0.0053  <S**2>=0.000
      11 -> 16         0.15990
      11 -> 17        -0.10968
      12 -> 13         0.62652
      12 -> 15         0.16659
      12 -> 19        -0.12471
 
 Excited state symmetry could not be determined.
 Excited State   4:      Singlet-?Sym    7.2737 eV  170.46 nm  f=0.0663  <S**2>=0.000
      11 -> 16         0.10876
      12 -> 14         0.64931
      12 -> 19        -0.11407
      12 -> 21        -0.16202
 
 Excited state symmetry could not be determined.
 Excited State   5:      Singlet-?Sym    7.4984 eV  165.35 nm  f=0.0005  <S**2>=0.000
      11 -> 14         0.64231
      11 -> 15         0.14487
      11 -> 21        -0.21949
 
 Excited state symmetry could not be determined.
 Excited State   6:      Singlet-?Sym    7.6410 eV  162.26 nm  f=0.0714  <S**2>=0.000
      11 -> 16        -0.25977
      11 -> 17         0.18605
      12 -> 14         0.12059
      12 -> 15         0.52920
      12 -> 18        -0.25164
      12 -> 19        -0.12314
      12 -> 23        -0.11617
 
 Excited state symmetry could not be determined.
 Excited State   7:      Singlet-?Sym    7.8286 eV  158.37 nm  f=0.2306  <S**2>=0.000
      11 -> 16         0.44863
      11 -> 17        -0.32591
      12 -> 13        -0.28079
      12 -> 15         0.28967
 
 Excited state symmetry could not be determined.
 Excited State   8:      Singlet-?Sym    8.0887 eV  153.28 nm  f=0.0129  <S**2>=0.000
      11 -> 14        -0.11046
      11 -> 15         0.45353
      11 -> 23        -0.11670
      12 -> 16        -0.23443
      12 -> 17        -0.43078
 
 Excited state symmetry could not be determined.
 Excited State   9:      Singlet-?Sym    8.0980 eV  153.10 nm  f=0.0002  <S**2>=0.000
      11 -> 14        -0.10643
      11 -> 15         0.45247
      11 -> 23        -0.10899
      12 -> 16         0.23556
      12 -> 17         0.43573
 
 Excited state symmetry could not be determined.
 Excited State  10:      Singlet-?Sym    8.5050 eV  145.78 nm  f=0.0087  <S**2>=0.000
      11 -> 16         0.39606
      11 -> 17         0.57294
 
 Excited state symmetry could not be determined.
 Excited State  11:      Singlet-?Sym    8.6616 eV  143.14 nm  f=0.0110  <S**2>=0.000
      12 -> 15         0.27300
      12 -> 18         0.44654
      12 -> 19         0.43978
 
 Excited state symmetry could not be determined.
 Excited State  12:      Singlet-?Sym    8.9113 eV  139.13 nm  f=0.0008  <S**2>=0.000
      11 -> 16         0.11231
      12 -> 14         0.12111
      12 -> 18        -0.38568
      12 -> 19         0.43526
      12 -> 20        -0.33181
 
 Excited state symmetry could not be determined.
 Excited State  13:      Singlet-?Sym    9.0129 eV  137.56 nm  f=0.0070  <S**2>=0.000
      11 -> 18         0.56063
      11 -> 19         0.32425
      11 -> 24        -0.20807
      11 -> 29         0.11291
 
 Excited state symmetry could not be determined.
 Excited State  14:      Singlet-?Sym    9.1694 eV  135.21 nm  f=0.0052  <S**2>=0.000
      11 -> 13         0.13776
      11 -> 18        -0.28567
      11 -> 19         0.55975
      11 -> 20        -0.18628
 
 Excited state symmetry could not be determined.
 Excited State  15:      Singlet-?Sym    9.4565 eV  131.11 nm  f=0.0345  <S**2>=0.000
      12 -> 13         0.12359
      12 -> 18        -0.22052
      12 -> 19         0.15706
      12 -> 20         0.52186
      12 -> 21        -0.23022
      12 -> 23         0.23092
 
 Excited state symmetry could not be determined.
 Excited State  16:      Singlet-?Sym    9.5959 eV  129.21 nm  f=0.0009  <S**2>=0.000
      11 -> 13         0.17727
      11 -> 19         0.11901
      11 -> 20         0.63020
      11 -> 23        -0.12018
 
 Excited state symmetry could not be determined.
 Excited State  17:      Singlet-?Sym    9.6781 eV  128.11 nm  f=0.0183  <S**2>=0.000
      12 -> 14         0.14346
      12 -> 20         0.17026
      12 -> 21         0.61185
      12 -> 23         0.17283
      12 -> 26         0.12516
 
 Excited state symmetry could not be determined.
 Excited State  18:      Singlet-?Sym    9.7207 eV  127.55 nm  f=0.0346  <S**2>=0.000
      12 -> 19        -0.13897
      12 -> 20        -0.21769
      12 -> 21        -0.11674
      12 -> 23         0.49791
      12 -> 24        -0.36559
 
 Excited state symmetry could not be determined.
 Excited State  19:      Singlet-?Sym    9.7465 eV  127.21 nm  f=0.0024  <S**2>=0.000
      12 -> 17         0.10168
      12 -> 22         0.68309
 
 Excited state symmetry could not be determined.
 Excited State  20:      Singlet-?Sym    9.8128 eV  126.35 nm  f=0.0096  <S**2>=0.000
      11 -> 14         0.19904
      11 -> 18        -0.10392
      11 -> 21         0.51368
      11 -> 23         0.32364
      11 -> 24        -0.14818
 SavETr:  write IOETrn=   770 NScale= 10 NData=  16 NLR=1 LETran=     370.
 FoFJK:  IHMeth= 1 ICntrl=     0 DoSepK=T KAlg= 1 I1Cent= 0 FoldK=F
 FoFJK:  IHMeth= 1 ICntrl=     0 DoSepK=T KAlg= 1 I1Cent= 0 FoldK=F
          IDoAtm=111111
          Differentiating once with respect to electric field.
                with respect to dipole field.
          Differentiating once with respect to nuclear coordinates.
          There are     1 degrees of freedom in the 1st order CPHF.  IDoFFX=0.
 FoFJK:  IHMeth= 1 ICntrl=     0 DoSepK=T KAlg= 1 I1Cent= 0 FoldK=F
 LinEq1:  Iter=  0 NonCon=     1 RMS=2.33D-02 Max=5.25D-01
 AX will form     1 AO Fock derivatives at one time.
 FoFJK:  IHMeth= 1 ICntrl=     0 DoSepK=T KAlg= 1 I1Cent= 0 FoldK=F
 LinEq1:  Iter=  1 NonCon=     1 RMS=5.48D-03 Max=7.03D-02
 FoFJK:  IHMeth= 1 ICntrl=     0 DoSepK=T KAlg= 1 I1Cent= 0 FoldK=F
 LinEq1:  Iter=  2 NonCon=     1 RMS=2.79D-03 Max=4.48D-02
 FoFJK:  IHMeth= 1 ICntrl=     0 DoSepK=T KAlg= 1 I1Cent= 0 FoldK=F
 LinEq1:  Iter=  3 NonCon=     1 RMS=1.15D-03 Max=1.59D-02
 FoFJK:  IHMeth= 1 ICntrl=     0 DoSepK=T KAlg= 1 I1Cent= 0 FoldK=F
 LinEq1:  Iter=  4 NonCon=     1 RMS=4.19D-04 Max=5.56D-03
 FoFJK:  IHMeth= 1 ICntrl=     0 DoSepK=T KAlg= 1 I1Cent= 0 FoldK=F
 LinEq1:  Iter=  5 NonCon=     1 RMS=1.51D-04 Max=2.49D-03
 FoFJK:  IHMeth= 1 ICntrl=     0 DoSepK=T KAlg= 1 I1Cent= 0 FoldK=F
 LinEq1:  Iter=  6 NonCon=     1 RMS=4.37D-05 Max=6.42D-04
 FoFJK:  IHMeth= 1 ICntrl=     0 DoSepK=T KAlg= 1 I1Cent= 0 FoldK=F
 LinEq1:  Iter=  7 NonCon=     1 RMS=1.01D-05 Max=8.49D-05
 FoFJK:  IHMeth= 1 ICntrl=     0 DoSepK=T KAlg= 1 I1Cent= 0 FoldK=F
 LinEq1:  Iter=  8 NonCon=     1 RMS=1.90D-06 Max=2.90D-05
 FoFJK:  IHMeth= 1 ICntrl=     0 DoSepK=T KAlg= 1 I1Cent= 0 FoldK=F
 LinEq1:  Iter=  9 NonCon=     1 RMS=3.09D-07 Max=2.75D-06
 FoFJK:  IHMeth= 1 ICntrl=     0 DoSepK=T KAlg= 1 I1Cent= 0 FoldK=F
 LinEq1:  Iter= 10 NonCon=     1 RMS=5.19D-08 Max=5.97D-07
 FoFJK:  IHMeth= 1 ICntrl=     0 DoSepK=T KAlg= 1 I1Cent= 0 FoldK=F
 LinEq1:  Iter= 11 NonCon=     1 RMS=9.58D-09 Max=9.44D-08
 FoFJK:  IHMeth= 1 ICntrl=     0 DoSepK=T KAlg= 1 I1Cent= 0 FoldK=F
 LinEq1:  Iter= 12 NonCon=     1 RMS=1.44D-09 Max=1.37D-08
 FoFJK:  IHMeth= 1 ICntrl=     0 DoSepK=T KAlg= 1 I1Cent= 0 FoldK=F
 LinEq1:  Iter= 13 NonCon=     1 RMS=2.15D-10 Max=1.75D-09
 FoFJK:  IHMeth= 1 ICntrl=     0 DoSepK=T KAlg= 1 I1Cent= 0 FoldK=F
 LinEq1:  Iter= 14 NonCon=     0 RMS=4.26D-11 Max=4.69D-10
 Linear equations converged to 1.000D-10 1.000D-09 after    14 iterations.
 FoFJK:  IHMeth= 1 ICntrl=     0 DoSepK=T KAlg= 1 I1Cent= 0 FoldK=F
 End of Minotr Frequency-dependent properties file   721 does not exist.
 End of Minotr Frequency-dependent properties file   722 does not exist.

 **********************************************************************

            Population analysis using the SCF density.

 **********************************************************************

 Alpha  occ. eigenvalues --  -19.17924 -14.42701 -10.35831  -1.13224  -1.00388
 Alpha  occ. eigenvalues --   -0.71233  -0.64112  -0.56300  -0.49563  -0.49086
 Alpha  occ. eigenvalues --   -0.35291  -0.33707
 Alpha virt. eigenvalues --   -0.00005   0.02006   0.03480   0.04953   0.06515
 Alpha virt. eigenvalues --    0.07640   0.08118   0.09491   0.10447   0.11595
 Alpha virt. eigenvalues --    0.12495   0.13963   0.16981   0.17764   0.18601
 Alpha virt. eigenvalues --    0.21226   0.22332   0.22729   0.23214   0.25920
 Alpha virt. eigenvalues --    0.27687   0.28060   0.30746   0.31517   0.32384
 Alpha virt. eigenvalues --    0.33187   0.33883   0.35215   0.37087   0.40168
 Alpha virt. eigenvalues --    0.40950   0.41789   0.43497   0.44232   0.45964
 Alpha virt. eigenvalues --    0.52053   0.53042   0.54258   0.54989   0.57970
 Alpha virt. eigenvalues --    0.58156   0.63797   0.67983   0.72296   0.73943
 Alpha virt. eigenvalues --    0.74289   0.74699   0.76184   0.76839   0.79812
 Alpha virt. eigenvalues --    0.80484   0.81938   0.84866   0.86093   0.86687
 Alpha virt. eigenvalues --    0.88071   0.90132   0.91392   0.93572   0.95728
 Alpha virt. eigenvalues --    0.96065   0.98019   0.98694   1.00539   1.02777
 Alpha virt. eigenvalues --    1.03158   1.04524   1.07354   1.10979   1.12788
 Alpha virt. eigenvalues --    1.13605   1.17332   1.20036   1.22905   1.25719
 Alpha virt. eigenvalues --    1.26922   1.30576   1.32049   1.33244   1.36200
 Alpha virt. eigenvalues --    1.38958   1.42411   1.48043   1.49035   1.55336
 Alpha virt. eigenvalues --    1.58411   1.58826   1.61648   1.72216   1.72532
 Alpha virt. eigenvalues --    1.80003   1.84416   1.85064   1.85927   1.85945
 Alpha virt. eigenvalues --    1.91192   2.00289   2.01513   2.09392   2.11343
 Alpha virt. eigenvalues --    2.15917   2.18424   2.21346   2.23273   2.25490
 Alpha virt. eigenvalues --    2.28450   2.30562   2.32808   2.34298   2.38443
 Alpha virt. eigenvalues --    2.44198   2.44564   2.46979   2.56902   2.58657
 Alpha virt. eigenvalues --    2.62565   2.68792   2.79066   2.87291   2.90225
 Alpha virt. eigenvalues --    2.96457   3.03769   3.13225   3.21544   3.31242
 Alpha virt. eigenvalues --    3.32365   3.39315   3.40770   3.49257   3.52914
 Alpha virt. eigenvalues --    3.64749   3.69076   3.71802   3.75072   3.83915
 Alpha virt. eigenvalues --    3.85099   3.85312   3.94159   3.95730   4.04801
 Alpha virt. eigenvalues --    4.05173   4.09451   4.12446   4.16410   4.18569
 Alpha virt. eigenvalues --    4.20169   4.26923   4.40791   4.40801   4.45136
 Alpha virt. eigenvalues --    4.46325   4.52979   4.60466   4.63164   4.65344
 Alpha virt. eigenvalues --    4.73343   4.82096   4.83455   4.92287   4.93270
 Alpha virt. eigenvalues --    4.97257   5.08506   5.15185   5.18172   5.21692
 Alpha virt. eigenvalues --    5.29065   5.30346   5.44637   5.46150   5.69398
 Alpha virt. eigenvalues --    5.74975   5.83615   5.84918   5.89119   5.98401
 Alpha virt. eigenvalues --    6.14691   6.26116   6.31029   6.45026   6.57264
 Alpha virt. eigenvalues --    6.63277   6.70029   6.77624   6.84429   6.88343
 Alpha virt. eigenvalues --    6.91662   7.14342   7.15946   7.22428   7.34889
 Alpha virt. eigenvalues --    7.42090   7.62451  14.97345  16.07609  17.23145
          Condensed to atoms (all electrons):
              1          2          3          4          5          6
     1  C    4.962220   0.380449   0.466313  -0.035604  -0.041046   0.278123
     2  N    0.380449   6.116339  -0.123806   0.397100   0.434251  -0.053947
     3  O    0.466313  -0.123806   8.227042   0.008232   0.000548  -0.058484
     4  H   -0.035604   0.397100   0.008232   0.579828  -0.079412   0.007094
     5  H   -0.041046   0.434251   0.000548  -0.079412   0.600795   0.000666
     6  H    0.278123  -0.053947  -0.058484   0.007094   0.000666   0.352825
 Mulliken atomic charges:
              1
     1  C   -0.010455
     2  N   -0.150385
     3  O   -0.519844
     4  H    0.122762
     5  H    0.084198
     6  H    0.473723
 Sum of Mulliken atomic charges =   0.00000
 Mulliken charges with hydrogens summed into heavy atoms:
              1
     1  C    0.463268
     2  N    0.056575
     3  O   -0.519844
 Sum of Mulliken charges with hydrogens summed into heavy atoms =   0.00000
 Electronic spatial extent (au):  <R**2>=            146.0439
 Charge=              0.0000 electrons
 Dipole moment (field-independent basis, Debye):
    X=              3.8883    Y=              0.9498    Z=              0.0007  Tot=              4.0027
 Quadrupole moment (field-independent basis, Debye-Ang):
   XX=            -18.3928   YY=            -15.5305   ZZ=            -19.1096
   XY=             -1.3008   XZ=              0.0011   YZ=             -0.0001
 Traceless Quadrupole moment (field-independent basis, Debye-Ang):
   XX=             -0.7152   YY=              2.1471   ZZ=             -1.4320
   XY=             -1.3008   XZ=              0.0011   YZ=             -0.0001
 Octapole moment (field-independent basis, Debye-Ang**2):
  XXX=             12.8125  YYY=             -1.6747  ZZZ=              0.0003  XYY=              2.9185
  XXY=              0.9816  XXZ=              0.0023  XZZ=             -1.4350  YZZ=             -0.1751
  YYZ=              0.0005  XYZ=              0.0000
 Hexadecapole moment (field-independent basis, Debye-Ang**3):
 XXXX=           -113.5001 YYYY=            -35.3574 ZZZZ=            -19.1475 XXXY=              2.4621
 XXXZ=              0.0027 YYYX=             -3.9898 YYYZ=             -0.0005 ZZZX=             -0.0009
 ZZZY=             -0.0001 XXYY=            -23.9469 XXZZ=            -25.8580 YYZZ=            -10.2305
 XXYZ=              0.0002 YYXZ=              0.0003 ZZXY=              0.1432
 N-N= 7.155173417988D+01 E-N=-5.414719583514D+02  KE= 1.689682399013D+02
 Calling FoFJK, ICntrl=      5127 FMM=F ISym2X=0 I1Cent= 0 IOpClX= 0 NMat=1 NMatS=1 NMatT=0.
 FoFJK:  IHMeth= 1 ICntrl=  5127 DoSepK=T KAlg= 1 I1Cent= 0 FoldK=F
 -------------------------------------------------------------------
 Center     Atomic                   Forces (Hartrees/Bohr)
 Number     Number              X              Y              Z
 -------------------------------------------------------------------
      1        6           0.106455587    0.121641698    0.000008719
      2        7           0.030872448   -0.034511934   -0.000014019
      3        8          -0.124143426   -0.081822562   -0.000003341
      4        1           0.003543564    0.004260460    0.000004762
      5        1          -0.004807463   -0.001907890    0.000004472
      6        1          -0.011920710   -0.007659771   -0.000000592
 -------------------------------------------------------------------
 Cartesian Forces:  Max     0.124143426 RMS     0.053040045

 GradGradGradGradGradGradGradGradGradGradGradGradGradGradGradGradGradGrad
 Berny optimization.
 Internal  Forces:  Max     0.148609904 RMS     0.040406964
 Search for a local minimum.
 Step number   1 out of a maximum of   25
 All quantities printed in internal units (Hartrees-Bohrs-Radians)
 Mixed Optimization -- RFO/linear search
 Second derivative matrix not updated -- first step.
 The second derivative matrix:
                          R1        R2        R3        R4        R5
           R1           0.54597
           R2           0.00000   1.01810
           R3           0.00000   0.00000   0.33442
           R4           0.00000   0.00000   0.00000   0.46713
           R5           0.00000   0.00000   0.00000   0.00000   0.47226
           A1           0.00000   0.00000   0.00000   0.00000   0.00000
           A2           0.00000   0.00000   0.00000   0.00000   0.00000
           A3           0.00000   0.00000   0.00000   0.00000   0.00000
           A4           0.00000   0.00000   0.00000   0.00000   0.00000
           A5           0.00000   0.00000   0.00000   0.00000   0.00000
           A6           0.00000   0.00000   0.00000   0.00000   0.00000
           D1           0.00000   0.00000   0.00000   0.00000   0.00000
           D2           0.00000   0.00000   0.00000   0.00000   0.00000
           D3           0.00000   0.00000   0.00000   0.00000   0.00000
           D4           0.00000   0.00000   0.00000   0.00000   0.00000
                          A1        A2        A3        A4        A5
           A1           0.25000
           A2           0.00000   0.16000
           A3           0.00000   0.00000   0.16000
           A4           0.00000   0.00000   0.00000   0.16000
           A5           0.00000   0.00000   0.00000   0.00000   0.16000
           A6           0.00000   0.00000   0.00000   0.00000   0.00000
           D1           0.00000   0.00000   0.00000   0.00000   0.00000
           D2           0.00000   0.00000   0.00000   0.00000   0.00000
           D3           0.00000   0.00000   0.00000   0.00000   0.00000
           D4           0.00000   0.00000   0.00000   0.00000   0.00000
                          A6        D1        D2        D3        D4
           A6           0.16000
           D1           0.00000   0.02327
           D2           0.00000   0.00000   0.02327
           D3           0.00000   0.00000   0.00000   0.02327
           D4           0.00000   0.00000   0.00000   0.00000   0.02327
     Eigenvalues ---    0.02327   0.02327   0.02327   0.16000   0.16000
     Eigenvalues ---    0.16000   0.22000   0.33442   0.46713   0.47226
     Eigenvalues ---    0.54597   1.018101000.000001000.000001000.00000
 RFO step:  Lambda=-2.74596809D-02 EMin= 2.32667172D-02
 Linear search not attempted -- first point.
 Iteration  1 RMS(Cart)=  0.05181241 RMS(Int)=  0.00140186
 Iteration  2 RMS(Cart)=  0.00150213 RMS(Int)=  0.00000093
 Iteration  3 RMS(Cart)=  0.00000089 RMS(Int)=  0.00000000
 Variable       Old X    -DE/DX   Delta X   Delta X   Delta X     New X
                                 (Linear)    (Quad)   (Total)
    R1        2.55492   0.04004   0.00000   0.06982   0.06982   2.62474
    R2        2.27923   0.14861   0.00000   0.14213   0.14213   2.42136
    R3        2.08282  -0.00785   0.00000  -0.02168  -0.02168   2.06114
    R4        1.90036  -0.00390   0.00000  -0.00788  -0.00788   1.89248
    R5        1.89472  -0.00503   0.00000  -0.01007  -0.01007   1.88465
    A1        2.17639  -0.01521   0.00000  -0.06147  -0.06147   2.11492
    A2        1.96854   0.01989   0.00000   0.09627   0.09627   2.06481
    A3        2.13825  -0.00468   0.00000  -0.03480  -0.03480   2.10346
    A4        2.08145   0.00574   0.00000   0.03064   0.03064   2.11208
    A5        2.11675  -0.00400   0.00000  -0.02136  -0.02136   2.09540
    A6        2.08499  -0.00174   0.00000  -0.00928  -0.00928   2.07570
    D1       -0.00020   0.00000   0.00000  -0.00009  -0.00009  -0.00029
    D2       -3.14133   0.00000   0.00000   0.00008   0.00008  -3.14125
    D3        3.14142   0.00000   0.00000  -0.00008  -0.00008   3.14134
    D4        0.00029   0.00000   0.00000   0.00009   0.00009   0.00038
         Item               Value     Threshold  Converged?
 Maximum Force            0.148610     0.000450     NO 
 RMS     Force            0.040407     0.000300     NO 
 Maximum Displacement     0.098730     0.001800     NO 
 RMS     Displacement     0.050982     0.001200     NO 
 Predicted change in Energy=-1.429892D-02
 GradGradGradGradGradGradGradGradGradGradGradGradGradGradGradGradGradGrad

                          Input orientation:                          
 ---------------------------------------------------------------------
 Center     Atomic      Atomic             Coordinates (Angstroms)
 Number     Number       Type             X           Y           Z
 ---------------------------------------------------------------------
      1          6           0       -0.148028    0.431980   -0.000008
      2          7           0        1.102457   -0.172561   -0.000056
      3          8           0       -1.222363   -0.266308   -0.000022
      4          1           0        1.193435   -1.169877    0.000145
      5          1           0        1.927892    0.387169    0.000250
      6          1           0       -0.195671    1.521646    0.000009
 ---------------------------------------------------------------------
                    Distance matrix (angstroms):
                    1          2          3          4          5
     1  C    0.000000
     2  N    1.388951   0.000000
     3  O    1.281328   2.326710   0.000000
     4  H    2.089371   1.001457   2.579248   0.000000
     5  H    2.076403   0.997316   3.217318   1.721574   0.000000
     6  H    1.090707   2.134356   2.061766   3.028847   2.407604
                    6
     6  H    0.000000
 Symmetry turned off by external request.
 Stoichiometry    CH3NO
 Framework group  C1[X(CH3NO)]
 Deg. of freedom    12
 Full point group                 C1      NOp   1
 Rotational constants (GHZ):     66.2645012     10.9330898      9.3846937
 Standard basis: Aug-CC-pVTZ (5D, 7F)
 Integral buffers will be    131072 words long.
 Raffenetti 2 integral format.
 Two-electron integral symmetry is turned off.
   207 basis functions,   297 primitive gaussians,   240 cartesian basis functions
    12 alpha electrons       12 beta electrons
       nuclear repulsion energy        69.3822722589 Hartrees.
 NAtoms=    6 NActive=    6 NUniq=    6 SFac= 7.50D-01 NAtFMM=   80 NAOKFM=F Big=F
 Standard density basis: Auto (5D, 7F)
   591 Density fitting functions
 One-electron integrals computed using PRISM.
 NBasis=   207 RedAO= T  NBF=   207
 NBsUse=   207 1.00D-06 NBFU=   207
 Initial guess read from the read-write file.
 B after Tr=     0.000000    0.000000    0.000000
         Rot=    1.000000    0.000000    0.000000    0.000000 Ang=   0.00 deg.
 Harris functional with IExCor=20419 diagonalized for initial guess.
 ExpMin= 2.53D-02 ExpMax= 1.53D+04 ExpMxC= 5.22D+02 IAcc=3 IRadAn=         0 AccDes= 0.00D+00
 HarFok:  IExCor=20419 AccDes= 0.00D+00 IRadAn=         0 IDoV= 1
 ScaDFX=  1.000000  1.000000  1.000000  1.000000
 FoFCou: FMM=F IPFlag=           0 FMFlag=      100000 FMFlg1=           0
         NFxFlg=           0 DoJE=T BraDBF=F KetDBF=T FulRan=T
         Omega=  0.000000  0.000000  1.000000  0.000000  0.000000 ICntrl=     500 IOpCl=  0
         NMat0=    1 NMatS0=    1 NMatT0=    0 NMatD0=    1 NMtDS0=    0 NMtDT0=    0
         I1Cent=           4 NGrid=           0.
 Symmetry not used in FoFCou.
 Requested convergence on RMS density matrix=1.00D-08 within 128 cycles.
 Requested convergence on MAX density matrix=1.00D-06.
 Requested convergence on             energy=1.00D-06.
 No special actions if energy rises.
 FoFJK:  IHMeth= 1 ICntrl=     0 DoSepK=T KAlg= 1 I1Cent= 0 FoldK=F
 FoFJK:  IHMeth= 1 ICntrl=     0 DoSepK=T KAlg= 1 I1Cent= 0 FoldK=F
 FoFJK:  IHMeth= 1 ICntrl=     0 DoSepK=T KAlg= 1 I1Cent= 0 FoldK=F
 FoFJK:  IHMeth= 1 ICntrl=     0 DoSepK=T KAlg= 1 I1Cent= 0 FoldK=F
 FoFJK:  IHMeth= 1 ICntrl=     0 DoSepK=T KAlg= 1 I1Cent= 0 FoldK=F
 FoFJK:  IHMeth= 1 ICntrl=     0 DoSepK=T KAlg= 1 I1Cent= 0 FoldK=F
 FoFJK:  IHMeth= 1 ICntrl=     0 DoSepK=T KAlg= 1 I1Cent= 0 FoldK=F
 FoFJK:  IHMeth= 1 ICntrl=     0 DoSepK=T KAlg= 1 I1Cent= 0 FoldK=F
 FoFJK:  IHMeth= 1 ICntrl=     0 DoSepK=T KAlg= 1 I1Cent= 0 FoldK=F
 FoFJK:  IHMeth= 1 ICntrl=     0 DoSepK=T KAlg= 1 I1Cent= 0 FoldK=F
 SCF Done:  E(RCAM-B3LYP) =  -169.887974589     A.U. after   10 cycles
             Convg  =    0.5164D-08             -V/T =  2.0074
 ExpMin= 2.53D-02 ExpMax= 1.53D+04 ExpMxC= 5.22D+02 IAcc=3 IRadAn=         5 AccDes= 0.00D+00
 HarFok:  IExCor=  205 AccDes= 0.00D+00 IRadAn=         5 IDoV=-2
 ScaDFX=  1.000000  1.000000  1.000000  1.000000
 Range of M.O.s used for correlation:     4   207
 NBasis=   207 NAE=    12 NBE=    12 NFC=     3 NFV=     0
 NROrb=    204 NOA=     9 NOB=     9 NVA=   195 NVB=   195

 **** Warning!!: The largest alpha MO coefficient is  0.37251965D+02

 Would need an additional   518800000 words for in-memory AO integral storage.
 Generating guess from densities on rwf.
 Convergence on wavefunction:    0.000001000000000
 Iteration     1 Dimension    40 NMult    40
 CISAX will form    40 AO SS matrices at one time.
 FoFJK:  IHMeth= 1 ICntrl=     0 DoSepK=T KAlg= 1 I1Cent= 0 FoldK=F
 FoFJK:  IHMeth= 1 ICntrl=     0 DoSepK=T KAlg= 1 I1Cent= 0 FoldK=F
 New state      5 was old state      7
 New state      6 was old state      5
 New state      7 was old state      6
 New state     12 was old state     13
 New state     13 was old state     12
 New state     15 was old state     16
 New state     16 was old state     15
 New state     18 was old state     20
 New state     20 was old state     18
 Iteration     2 Dimension    80 NMult    80
 FoFJK:  IHMeth= 1 ICntrl=     0 DoSepK=T KAlg= 1 I1Cent= 0 FoldK=F
 FoFJK:  IHMeth= 1 ICntrl=     0 DoSepK=T KAlg= 1 I1Cent= 0 FoldK=F
 New state      2 was old state      3
 New state      3 was old state      2
 New state     15 was old state     16
 New state     16 was old state     15
 Iteration     3 Dimension   120 NMult   120
 FoFJK:  IHMeth= 1 ICntrl=     0 DoSepK=T KAlg= 1 I1Cent= 0 FoldK=F
 FoFJK:  IHMeth= 1 ICntrl=     0 DoSepK=T KAlg= 1 I1Cent= 0 FoldK=F
 New state     15 was old state     18
 New state     16 was old state     15
 New state     17 was old state     16
 New state     18 was old state     17
 Iteration     4 Dimension   160 NMult   160
 FoFJK:  IHMeth= 1 ICntrl=     0 DoSepK=T KAlg= 1 I1Cent= 0 FoldK=F
 FoFJK:  IHMeth= 1 ICntrl=     0 DoSepK=T KAlg= 1 I1Cent= 0 FoldK=F
 Iteration     5 Dimension   200 NMult   200
 FoFJK:  IHMeth= 1 ICntrl=     0 DoSepK=T KAlg= 1 I1Cent= 0 FoldK=F
 FoFJK:  IHMeth= 1 ICntrl=     0 DoSepK=T KAlg= 1 I1Cent= 0 FoldK=F
 Iteration     6 Dimension   240 NMult   240
 FoFJK:  IHMeth= 1 ICntrl=     0 DoSepK=T KAlg= 1 I1Cent= 0 FoldK=F
 FoFJK:  IHMeth= 1 ICntrl=     0 DoSepK=T KAlg= 1 I1Cent= 0 FoldK=F
 Iteration     7 Dimension   278 NMult   278
 FoFJK:  IHMeth= 1 ICntrl=     0 DoSepK=T KAlg= 1 I1Cent= 0 FoldK=F
 FoFJK:  IHMeth= 1 ICntrl=     0 DoSepK=T KAlg= 1 I1Cent= 0 FoldK=F
 Iteration     8 Dimension   300 NMult   300
 FoFJK:  IHMeth= 1 ICntrl=     0 DoSepK=T KAlg= 1 I1Cent= 0 FoldK=F
 FoFJK:  IHMeth= 1 ICntrl=     0 DoSepK=T KAlg= 1 I1Cent= 0 FoldK=F
 Iteration     9 Dimension   318 NMult   318
 FoFJK:  IHMeth= 1 ICntrl=     0 DoSepK=T KAlg= 1 I1Cent= 0 FoldK=F
 FoFJK:  IHMeth= 1 ICntrl=     0 DoSepK=T KAlg= 1 I1Cent= 0 FoldK=F
 Davidson failed to converge within maximum sub-space dimensions.
  Restart with updated initial guess:
 Iteration     1 Dimension    48 NMult   366
 FoFJK:  IHMeth= 1 ICntrl=     0 DoSepK=T KAlg= 1 I1Cent= 0 FoldK=F
 FoFJK:  IHMeth= 1 ICntrl=     0 DoSepK=T KAlg= 1 I1Cent= 0 FoldK=F
 Iteration     2 Dimension    88 NMult   406
 FoFJK:  IHMeth= 1 ICntrl=     0 DoSepK=T KAlg= 1 I1Cent= 0 FoldK=F
 FoFJK:  IHMeth= 1 ICntrl=     0 DoSepK=T KAlg= 1 I1Cent= 0 FoldK=F
 ***********************************************************************
 Excited states from <AA,BB:AA,BB> singles matrix:
 ***********************************************************************
 
 Ground to excited state transition electric dipole moments (Au):
       state          X           Y           Z        Dip. S.      Osc.
         1         0.0001      0.0000      0.0493      0.0024      0.0003
         2         0.2042      0.0065      0.0020      0.0417      0.0067
         3        -0.0015      0.0000      0.2953      0.0872      0.0141
         4         0.8742      0.2536      0.0000      0.8286      0.1434
         5        -0.7588      0.4705      0.0000      0.7971      0.1425
         6         0.0003     -0.0004      0.0624      0.0039      0.0007
         7         0.3839      0.3253      0.0000      0.2532      0.0473
         8        -0.0001     -0.0001     -0.2225      0.0495      0.0096
         9        -0.0002      0.0000      0.1463      0.0214      0.0042
        10        -0.2537      0.0079      0.0001      0.0644      0.0132
        11         0.0562     -0.1908      0.0001      0.0396      0.0083
        12         0.0000      0.0001      0.2234      0.0499      0.0108
        13        -0.0145     -0.0436      0.0000      0.0021      0.0005
        14         0.0000      0.0001     -0.1302      0.0169      0.0037
        15         0.0000      0.0001     -0.0456      0.0021      0.0005
        16         0.3580      0.0565      0.0000      0.1313      0.0303
        17        -0.0005     -0.0002     -0.0113      0.0001      0.0000
        18         0.1565     -0.1517     -0.0001      0.0475      0.0111
        19        -0.0014      0.0008     -0.1227      0.0151      0.0036
        20        -0.3057      0.1546     -0.0033      0.1174      0.0278
 Ground to excited state transition velocity dipole moments (Au):
       state          X           Y           Z        Dip. S.      Osc.
         1         0.0000      0.0000     -0.0096      0.0001      0.0003
         2        -0.0486     -0.0019     -0.0005      0.0024      0.0065
         3         0.0004      0.0000     -0.0717      0.0051      0.0142
         4        -0.2264     -0.0656      0.0000      0.0556      0.1427
         5         0.2030     -0.1262      0.0000      0.0571      0.1420
         6        -0.0001      0.0001     -0.0171      0.0003      0.0007
         7        -0.1069     -0.0914      0.0000      0.0198      0.0471
         8         0.0000      0.0000      0.0650      0.0042      0.0097
         9         0.0001      0.0000     -0.0423      0.0018      0.0040
        10         0.0755     -0.0033      0.0000      0.0057      0.0124
        11        -0.0161      0.0595      0.0000      0.0038      0.0081
        12         0.0000      0.0000     -0.0730      0.0053      0.0110
        13         0.0020      0.0126      0.0000      0.0002      0.0003
        14         0.0000      0.0000      0.0436      0.0019      0.0038
        15         0.0000      0.0000      0.0168      0.0003      0.0006
        16        -0.1241     -0.0179      0.0000      0.0157      0.0303
        17         0.0002      0.0001      0.0070      0.0000      0.0001
        18        -0.0567      0.0534      0.0000      0.0061      0.0115
        19         0.0005     -0.0003      0.0425      0.0018      0.0034
        20         0.1068     -0.0534      0.0011      0.0143      0.0267
 Ground to excited state transition magnetic dipole moments (Au):
       state          X           Y           Z
         1        -0.8987     -0.4187      0.0000
         2         0.0002      0.0027      0.3946
         3         0.0200      0.3966     -0.0027
         4         0.0001      0.0000      0.0913
         5         0.0000      0.0001     -0.2816
         6         0.0137      0.0074      0.0003
         7         0.0000      0.0001      0.5569
         8         0.0069      0.3903     -0.0002
         9        -0.0568      0.1129     -0.0001
        10         0.0000     -0.0001      0.0322
        11         0.0000     -0.0001     -0.1596
        12         0.1244     -0.3798      0.0000
        13         0.0001     -0.0006      0.2509
        14        -0.1469     -0.4144     -0.0002
        15        -0.9330      1.1268      0.0001
        16        -0.0001      0.0001     -0.1822
        17        -0.0144      0.0601      0.0005
        18         0.0001     -0.0003      0.2247
        19         0.0468     -0.2673     -0.0007
        20        -0.0005      0.0053     -0.1152
 <0|del|b> * <b|rxdel|0> + <0|del|b> * <b|delr+rdel|0>
 Rotatory Strengths (R) in cgs (10**-40 erg-esu-cm/Gauss)
       state          XX          YY          ZZ    R(velocity)
         1        -0.0021      0.0177      0.0131      0.0096
 Total R(velocity) tensor for State=          1
                 1             2             3 
      1  -0.206643D-02 -0.795018D-02  0.000000D+00
      2   0.280142D-02  0.176613D-01  0.000000D+00
      3  -0.150183D+02 -0.756945D+01  0.130906D-01
         2        -0.4493     -0.1447     -0.0024     -0.1988
 Total R(velocity) tensor for State=          2
                 1             2             3 
      1  -0.449250D+00  0.383759D+00  0.442599D+02
      2  -0.206679D+00 -0.144716D+00  0.216389D+02
      3   0.119462D+00 -0.306229D+01 -0.244843D-02
         3         0.4682      0.1428     -0.0027      0.2028
 Total R(velocity) tensor for State=          3
                 1             2             3 
      1   0.468235D+00 -0.407501D+00  0.222256D-02
      2   0.213550D+00  0.142845D+00  0.107969D-02
      3  -0.573670D+00  0.663271D+00 -0.269008D-02
         4         0.0064     -0.0306     -0.0121     -0.0121
 Total R(velocity) tensor for State=          4
                 1             2             3 
      1   0.642190D-02 -0.225598D-01  0.211558D+02
      2   0.934854D-02 -0.305815D-01 -0.875764D+02
      3  -0.602077D+01  0.207721D+02 -0.121492D-01
         5        -0.0091      0.0132     -0.0317     -0.0092
 Total R(velocity) tensor for State=          5
                 1             2             3 
      1  -0.906976D-02 -0.236142D-01  0.106377D+03
      2   0.816112D-02  0.131823D-01 -0.635554D+00
      3   0.157683D+02  0.253657D+02 -0.317014D-01
         6        -0.0057     -0.0148      0.0069     -0.0046
 Total R(velocity) tensor for State=          6
                 1             2             3 
      1  -0.574208D-02 -0.236860D-02  0.106324D-04
      2  -0.196034D-01 -0.148324D-01 -0.601376D-05
      3  -0.204499D+01 -0.344888D+00  0.691445D-02
         7        -0.0133      0.0102     -0.0102     -0.0044
 Total R(velocity) tensor for State=          7
                 1             2             3 
      1  -0.132746D-01  0.371301D-01  0.148520D+03
      2  -0.960942D-03  0.102067D-01  0.624413D+02
      3  -0.674446D+00  0.788844D+00 -0.102406D-01
         8         0.0118     -0.0076      0.0113      0.0052
 Total R(velocity) tensor for State=          8
                 1             2             3 
      1   0.118204D-01 -0.312654D-01  0.145785D-04
      2  -0.521745D-02 -0.761046D-02  0.729826D-05
      3   0.308124D+01 -0.198695D+02  0.113172D-01
         9         0.0061     -0.0027     -0.0033      0.0000
 Total R(velocity) tensor for State=          9
                 1             2             3 
      1   0.611832D-02 -0.136985D-01  0.833342D-05
      2  -0.394892D-02 -0.273858D-02 -0.645351D-05
      3  -0.204816D+01 -0.116228D+01 -0.332323D-02
        10        -0.0022      0.0054      0.0029      0.0020
 Total R(velocity) tensor for State=         10
                 1             2             3 
      1  -0.222910D-02  0.775521D-02 -0.879932D+01
      2  -0.795360D-03  0.544214D-02 -0.353793D+01
      3   0.751392D+00  0.173081D+02  0.291113D-02
        11        -0.0066     -0.0025     -0.0011     -0.0034
 Total R(velocity) tensor for State=         11
                 1             2             3 
      1  -0.661283D-02 -0.509093D-02 -0.818686D+01
      2  -0.130332D-01 -0.252024D-02  0.251741D+01
      3   0.156018D+01  0.423080D+00 -0.106275D-02
        12         0.0100      0.0143      0.0007      0.0083
 Total R(velocity) tensor for State=         12
                 1             2             3 
      1   0.995374D-02  0.725109D-02 -0.123244D-05
      2   0.132888D-01  0.143077D-01 -0.288284D-05
      3   0.419551D+01 -0.146942D+01  0.690884D-03
        13        -0.0139     -0.0012     -0.0040     -0.0064
 Total R(velocity) tensor for State=         13
                 1             2             3 
      1  -0.139129D-01  0.168841D-02 -0.117427D+01
      2  -0.232878D-02 -0.123597D-02 -0.354509D+01
      3   0.162492D+01 -0.259391D+00 -0.400841D-02
        14         0.0018     -0.0087      0.0069      0.0000
 Total R(velocity) tensor for State=         14
                 1             2             3 
      1   0.177404D-02 -0.527541D-02 -0.226345D-05
      2   0.107071D-02 -0.872788D-02 -0.381083D-05
      3   0.130726D+02  0.146134D+02  0.690745D-02
        15        -0.0308      0.0148     -0.0147     -0.0102
 Total R(velocity) tensor for State=         15
                 1             2             3 
      1  -0.308470D-01  0.156499D-01  0.000000D+00
      2  -0.283254D-01  0.148001D-01  0.109453D-05
      3   0.126177D+02 -0.166742D+02 -0.146640D-01
        16         0.0024      0.0364     -0.0257      0.0044
 Total R(velocity) tensor for State=         16
                 1             2             3 
      1   0.241911D-02 -0.191745D-01 -0.161291D+02
      2  -0.541197D-02  0.364167D-01 -0.823209D+01
      3   0.333330D+00 -0.231709D+01 -0.257489D-01
        17        -0.0029     -0.0162      0.0302      0.0037
 Total R(velocity) tensor for State=         17
                 1             2             3 
      1  -0.292786D-02  0.184230D-01 -0.113452D-03
      2   0.896367D-02 -0.162349D-01 -0.649172D-04
      3  -0.575418D+00 -0.149133D+01  0.301699D-01
        18        -0.0049     -0.0009     -0.0164     -0.0074
 Total R(velocity) tensor for State=         18
                 1             2             3 
      1  -0.485670D-02 -0.177444D-01  0.181500D+02
      2   0.111331D-01 -0.928167D-03  0.183410D+02
      3   0.272818D+01  0.289182D+01 -0.163561D-01
        19         0.1103     -0.0927      0.1066      0.0414
 Total R(velocity) tensor for State=         19
                 1             2             3 
      1   0.110301D+00  0.199956D+00  0.275654D-04
      2   0.126823D-01 -0.927424D-01 -0.726461D-03
      3  -0.765211D+01  0.334018D+01  0.106600D+00
        20        -0.2150     -0.3847     -0.3161     -0.3053
 Total R(velocity) tensor for State=         20
                 1             2             3 
      1  -0.215032D+00 -0.638644D+00 -0.991622D+01
      2   0.280324D+00 -0.384728D+00 -0.449938D+02
      3  -0.814056D+01 -0.162945D+02 -0.316110D+00
 1/2[<0|r|b>*<b|rxdel|0> + (<0|rxdel|b>*<b|r|0>)*]
 Rotatory Strengths (R) in cgs (10**-40 erg-esu-cm/Gauss)
       state          XX          YY          ZZ     R(length)     R(au)
         1         0.0328     -0.0027     -0.0009      0.0097      0.0000
         2        -0.0312     -0.0123     -0.5493     -0.1976     -0.0004
         3         0.0208      0.0140      0.5700      0.2016      0.0004
         4        -0.0440      0.0079     -0.0003     -0.0121      0.0000
         5        -0.0145     -0.0210      0.0079     -0.0092      0.0000
         6        -0.0027      0.0021     -0.0129     -0.0045      0.0000
         7         0.0003     -0.0322      0.0183     -0.0045      0.0000
         8         0.0005      0.0392     -0.0244      0.0051      0.0000
         9        -0.0091      0.0011      0.0082      0.0001      0.0000
        10         0.0075      0.0004     -0.0016      0.0021      0.0000
        11        -0.0009     -0.0181      0.0085     -0.0035      0.0000
        12         0.0011      0.0175      0.0072      0.0086      0.0000
        13         0.0008     -0.0183     -0.0030     -0.0069      0.0000
        14         0.0012      0.0178     -0.0173      0.0005      0.0000
        15         0.0221     -0.0556      0.0021     -0.0105      0.0000
        16         0.0186     -0.0051      0.0011      0.0049      0.0000
        17        -0.0053      0.0092      0.0042      0.0027      0.0000
        18        -0.0095     -0.0291      0.0177     -0.0069      0.0000
        19         0.0448      0.1460     -0.0642      0.0422      0.0001
        20        -0.1030     -0.5741     -0.2710     -0.3160     -0.0007
  1/2[<0|del|b>*<b|r|0> + (<0|r|b>*<b|del|0>)*] (Au)
       state          X           Y           Z        Dip. S.   Osc.(frdel)
         1         0.0000      0.0000     -0.0005      0.0005      0.0003
         2        -0.0099      0.0000      0.0000      0.0099      0.0066
         3         0.0000      0.0000     -0.0212      0.0212      0.0141
         4        -0.1979     -0.0166      0.0000      0.2146      0.1430
         5        -0.1540     -0.0594      0.0000      0.2134      0.1422
         6         0.0000      0.0000     -0.0011      0.0011      0.0007
         7        -0.0410     -0.0297      0.0000      0.0708      0.0472
         8         0.0000      0.0000     -0.0145      0.0145      0.0096
         9         0.0000      0.0000     -0.0062      0.0062      0.0041
        10        -0.0191      0.0000      0.0000      0.0192      0.0128
        11        -0.0009     -0.0114      0.0000      0.0123      0.0082
        12         0.0000      0.0000     -0.0163      0.0163      0.0109
        13         0.0000     -0.0005      0.0000      0.0006      0.0004
        14         0.0000      0.0000     -0.0057      0.0057      0.0038
        15         0.0000      0.0000     -0.0008      0.0008      0.0005
        16        -0.0444     -0.0010      0.0000      0.0454      0.0303
        17         0.0000      0.0000     -0.0001      0.0001      0.0001
        18        -0.0089     -0.0081      0.0000      0.0170      0.0113
        19         0.0000      0.0000     -0.0052      0.0052      0.0035
        20        -0.0327     -0.0083      0.0000      0.0409      0.0273
 Ground to excited state transition densities written to RWF  633

 Excitation energies and oscillator strengths:
 
 Excited state symmetry could not be determined.
 Excited State   1:      Singlet-?Sym    4.9262 eV  251.69 nm  f=0.0003  <S**2>=0.000
      12 -> 15         0.68672
      12 -> 17        -0.12391
 This state for optimization and/or second-order correction.
 Copying the excited state density for this state as the 1-particle RhoCI density.
 
 Excited state symmetry could not be determined.
 Excited State   2:      Singlet-?Sym    6.5782 eV  188.48 nm  f=0.0067  <S**2>=0.000
      11 -> 15         0.36464
      12 -> 13         0.55155
      12 -> 16         0.14096
      12 -> 19        -0.12122
 
 Excited state symmetry could not be determined.
 Excited State   3:      Singlet-?Sym    6.5968 eV  187.95 nm  f=0.0141  <S**2>=0.000
      11 -> 13         0.66419
      11 -> 18         0.11399
      11 -> 19        -0.12852
      11 -> 20        -0.10966
 
 Excited state symmetry could not be determined.
 Excited State   4:      Singlet-?Sym    7.0653 eV  175.48 nm  f=0.1434  <S**2>=0.000
      11 -> 15         0.40886
      11 -> 17        -0.10126
      12 -> 13        -0.23089
      12 -> 14         0.43784
      12 -> 16        -0.15863
      12 -> 18         0.11751
      12 -> 21        -0.13797
 
 Excited state symmetry could not be determined.
 Excited State   5:      Singlet-?Sym    7.2970 eV  169.91 nm  f=0.1425  <S**2>=0.000
      11 -> 15        -0.35565
      11 -> 17         0.10288
      12 -> 13         0.22951
      12 -> 14         0.50379
      12 -> 16         0.13534
      12 -> 19        -0.13106
      12 -> 21        -0.10869
 
 Excited state symmetry could not be determined.
 Excited State   6:      Singlet-?Sym    7.3716 eV  168.19 nm  f=0.0007  <S**2>=0.000
      11 -> 14         0.64635
      11 -> 16         0.13200
      11 -> 21        -0.21327
 
 Excited state symmetry could not be determined.
 Excited State   7:      Singlet-?Sym    7.6216 eV  162.68 nm  f=0.0473  <S**2>=0.000
      11 -> 15         0.13006
      12 -> 13        -0.25743
      12 -> 16         0.56319
      12 -> 18        -0.22946
      12 -> 19        -0.14819
 
 Excited state symmetry could not be determined.
 Excited State   8:      Singlet-?Sym    7.9140 eV  156.66 nm  f=0.0096  <S**2>=0.000
      11 -> 14        -0.13846
      11 -> 16         0.64139
      11 -> 23        -0.16571
 
 Excited state symmetry could not be determined.
 Excited State   9:      Singlet-?Sym    8.0596 eV  153.83 nm  f=0.0042  <S**2>=0.000
      12 -> 15         0.12436
      12 -> 17         0.68545
 
 Excited state symmetry could not be determined.
 Excited State  10:      Singlet-?Sym    8.3745 eV  148.05 nm  f=0.0132  <S**2>=0.000
      11 -> 15         0.16964
      11 -> 17         0.67562
 
 Excited state symmetry could not be determined.
 Excited State  11:      Singlet-?Sym    8.5293 eV  145.36 nm  f=0.0083  <S**2>=0.000
      12 -> 16         0.29695
      12 -> 18         0.42386
      12 -> 19         0.44503
      12 -> 29         0.10644
 
 Excited state symmetry could not be determined.
 Excited State  12:      Singlet-?Sym    8.7986 eV  140.91 nm  f=0.0108  <S**2>=0.000
      11 -> 16         0.10163
      11 -> 18         0.53848
      11 -> 19         0.36053
      11 -> 24        -0.18759
      11 -> 29         0.11949
 
 Excited state symmetry could not be determined.
 Excited State  13:      Singlet-?Sym    8.8205 eV  140.56 nm  f=0.0005  <S**2>=0.000
      12 -> 14         0.12816
      12 -> 18        -0.40182
      12 -> 19         0.42515
      12 -> 20        -0.32982
 
 Excited state symmetry could not be determined.
 Excited State  14:      Singlet-?Sym    8.9903 eV  137.91 nm  f=0.0037  <S**2>=0.000
      11 -> 13         0.12321
      11 -> 18        -0.31906
      11 -> 19         0.53095
      11 -> 20        -0.23404
 
 Excited state symmetry could not be determined.
 Excited State  15:      Singlet-?Sym    9.1394 eV  135.66 nm  f=0.0005  <S**2>=0.000
       9 -> 15         0.67859
       9 -> 17        -0.12070
 
 Excited state symmetry could not be determined.
 Excited State  16:      Singlet-?Sym    9.4049 eV  131.83 nm  f=0.0303  <S**2>=0.000
      12 -> 13         0.12179
      12 -> 18        -0.22264
      12 -> 19         0.15116
      12 -> 20         0.50552
      12 -> 21        -0.27913
      12 -> 23         0.21945
 
 Excited state symmetry could not be determined.
 Excited State  17:      Singlet-?Sym    9.4545 eV  131.14 nm  f=0.0000  <S**2>=0.000
      10 -> 13        -0.10966
      11 -> 13         0.18239
      11 -> 18        -0.10958
      11 -> 19         0.15201
      11 -> 20         0.61653
 
 Excited state symmetry could not be determined.
 Excited State  18:      Singlet-?Sym    9.5433 eV  129.92 nm  f=0.0111  <S**2>=0.000
      12 -> 14         0.15206
      12 -> 19         0.10507
      12 -> 20         0.25878
      12 -> 21         0.58931
      12 -> 26         0.14235
 
 Excited state symmetry could not be determined.
 Excited State  19:      Singlet-?Sym    9.6632 eV  128.30 nm  f=0.0036  <S**2>=0.000
      11 -> 14         0.20392
      11 -> 21         0.54659
      11 -> 23         0.27804
      11 -> 24        -0.15156
 
 Excited state symmetry could not be determined.
 Excited State  20:      Singlet-?Sym    9.6756 eV  128.14 nm  f=0.0278  <S**2>=0.000
      10 -> 15        -0.15293
      12 -> 19        -0.11555
      12 -> 20        -0.17872
      12 -> 23         0.46933
      12 -> 24        -0.41649
 SavETr:  write IOETrn=   770 NScale= 10 NData=  16 NLR=1 LETran=     370.
 FoFJK:  IHMeth= 1 ICntrl=     0 DoSepK=T KAlg= 1 I1Cent= 0 FoldK=F
 FoFJK:  IHMeth= 1 ICntrl=     0 DoSepK=T KAlg= 1 I1Cent= 0 FoldK=F
          IDoAtm=111111
          Differentiating once with respect to electric field.
                with respect to dipole field.
          Differentiating once with respect to nuclear coordinates.
          There are     1 degrees of freedom in the 1st order CPHF.  IDoFFX=0.
 FoFJK:  IHMeth= 1 ICntrl=     0 DoSepK=T KAlg= 1 I1Cent= 0 FoldK=F
 LinEq1:  Iter=  0 NonCon=     1 RMS=2.85D-02 Max=7.95D-01
 AX will form     1 AO Fock derivatives at one time.
 FoFJK:  IHMeth= 1 ICntrl=     0 DoSepK=T KAlg= 1 I1Cent= 0 FoldK=F
 LinEq1:  Iter=  1 NonCon=     1 RMS=6.35D-03 Max=1.03D-01
 FoFJK:  IHMeth= 1 ICntrl=     0 DoSepK=T KAlg= 1 I1Cent= 0 FoldK=F
 LinEq1:  Iter=  2 NonCon=     1 RMS=3.29D-03 Max=6.47D-02
 FoFJK:  IHMeth= 1 ICntrl=     0 DoSepK=T KAlg= 1 I1Cent= 0 FoldK=F
 LinEq1:  Iter=  3 NonCon=     1 RMS=1.50D-03 Max=2.19D-02
 FoFJK:  IHMeth= 1 ICntrl=     0 DoSepK=T KAlg= 1 I1Cent= 0 FoldK=F
 LinEq1:  Iter=  4 NonCon=     1 RMS=5.77D-04 Max=7.75D-03
 FoFJK:  IHMeth= 1 ICntrl=     0 DoSepK=T KAlg= 1 I1Cent= 0 FoldK=F
 LinEq1:  Iter=  5 NonCon=     1 RMS=2.09D-04 Max=3.80D-03
 FoFJK:  IHMeth= 1 ICntrl=     0 DoSepK=T KAlg= 1 I1Cent= 0 FoldK=F
 LinEq1:  Iter=  6 NonCon=     1 RMS=6.25D-05 Max=9.82D-04
 FoFJK:  IHMeth= 1 ICntrl=     0 DoSepK=T KAlg= 1 I1Cent= 0 FoldK=F
 LinEq1:  Iter=  7 NonCon=     1 RMS=1.35D-05 Max=1.14D-04
 FoFJK:  IHMeth= 1 ICntrl=     0 DoSepK=T KAlg= 1 I1Cent= 0 FoldK=F
 LinEq1:  Iter=  8 NonCon=     1 RMS=2.48D-06 Max=4.37D-05
 FoFJK:  IHMeth= 1 ICntrl=     0 DoSepK=T KAlg= 1 I1Cent= 0 FoldK=F
 LinEq1:  Iter=  9 NonCon=     1 RMS=4.38D-07 Max=5.10D-06
 FoFJK:  IHMeth= 1 ICntrl=     0 DoSepK=T KAlg= 1 I1Cent= 0 FoldK=F
 LinEq1:  Iter= 10 NonCon=     1 RMS=7.26D-08 Max=7.08D-07
 FoFJK:  IHMeth= 1 ICntrl=     0 DoSepK=T KAlg= 1 I1Cent= 0 FoldK=F
 LinEq1:  Iter= 11 NonCon=     1 RMS=1.42D-08 Max=1.26D-07
 FoFJK:  IHMeth= 1 ICntrl=     0 DoSepK=T KAlg= 1 I1Cent= 0 FoldK=F
 LinEq1:  Iter= 12 NonCon=     1 RMS=2.15D-09 Max=1.95D-08
 FoFJK:  IHMeth= 1 ICntrl=     0 DoSepK=T KAlg= 1 I1Cent= 0 FoldK=F
 LinEq1:  Iter= 13 NonCon=     1 RMS=2.81D-10 Max=3.86D-09
 FoFJK:  IHMeth= 1 ICntrl=     0 DoSepK=T KAlg= 1 I1Cent= 0 FoldK=F
 LinEq1:  Iter= 14 NonCon=     1 RMS=6.45D-11 Max=1.68D-09
 FoFJK:  IHMeth= 1 ICntrl=     0 DoSepK=T KAlg= 1 I1Cent= 0 FoldK=F
 LinEq1:  Iter= 15 NonCon=     0 RMS=1.58D-11 Max=4.68D-10
 Linear equations converged to 1.000D-10 1.000D-09 after    15 iterations.
 FoFJK:  IHMeth= 1 ICntrl=     0 DoSepK=T KAlg= 1 I1Cent= 0 FoldK=F
 End of Minotr Frequency-dependent properties file   721 does not exist.
 End of Minotr Frequency-dependent properties file   722 does not exist.
 Calling FoFJK, ICntrl=      5127 FMM=F ISym2X=0 I1Cent= 0 IOpClX= 0 NMat=1 NMatS=1 NMatT=0.
 FoFJK:  IHMeth= 1 ICntrl=  5127 DoSepK=T KAlg= 1 I1Cent= 0 FoldK=F
 -------------------------------------------------------------------
 Center     Atomic                   Forces (Hartrees/Bohr)
 Number     Number              X              Y              Z
 -------------------------------------------------------------------
      1        6           0.046757068    0.040748619    0.000007333
      2        7          -0.007504200   -0.008444856   -0.000017587
      3        8          -0.034963343   -0.027935508   -0.000001440
      4        1          -0.000196589    0.001032297    0.000005906
      5        1           0.000079388    0.001709328    0.000006510
      6        1          -0.004172325   -0.007109881   -0.000000721
 -------------------------------------------------------------------
 Cartesian Forces:  Max     0.046757068 RMS     0.018332002

 GradGradGradGradGradGradGradGradGradGradGradGradGradGradGradGradGradGrad
 Berny optimization.
 Using GEDIIS/GDIIS optimizer.
 Internal  Forces:  Max     0.044538809 RMS     0.012256861
[...]
      10 -> 13        -0.13460
      11 -> 13        -0.18202
      11 -> 18         0.14876
      11 -> 19        -0.16674
      11 -> 20        -0.59709
 
 Excited state symmetry could not be determined.
 Excited State  18:      Singlet-?Sym    9.3243 eV  132.97 nm  f=0.0040  <S**2>=0.000
      10 -> 15        -0.10885
      12 -> 14         0.16058
      12 -> 19         0.10519
      12 -> 20         0.23888
      12 -> 21         0.60073
      12 -> 26         0.13824
 
 Excited state symmetry could not be determined.
 Excited State  19:      Singlet-?Sym    9.4806 eV  130.78 nm  f=0.0028  <S**2>=0.000
      11 -> 14        -0.19435
      11 -> 21        -0.56366
      11 -> 23        -0.24556
      11 -> 24         0.12928
 
 Excited state symmetry could not be determined.
 Excited State  20:      Singlet-?Sym    9.4823 eV  130.75 nm  f=0.0328  <S**2>=0.000
      10 -> 15        -0.19897
      12 -> 19        -0.10571
      12 -> 20        -0.14453
      12 -> 23         0.44772
      12 -> 24        -0.41559
      12 -> 27         0.11096
 SavETr:  write IOETrn=   770 NScale= 10 NData=  16 NLR=1 LETran=     370.
 FoFJK:  IHMeth= 1 ICntrl=     0 DoSepK=T KAlg= 1 I1Cent= 0 FoldK=F
 FoFJK:  IHMeth= 1 ICntrl=     0 DoSepK=T KAlg= 1 I1Cent= 0 FoldK=F
          IDoAtm=111111
          Differentiating once with respect to electric field.
                with respect to dipole field.
          Differentiating once with respect to nuclear coordinates.
          There are     1 degrees of freedom in the 1st order CPHF.  IDoFFX=0.
 FoFJK:  IHMeth= 1 ICntrl=     0 DoSepK=T KAlg= 1 I1Cent= 0 FoldK=F
 LinEq1:  Iter=  0 NonCon=     1 RMS=3.25D-02 Max=9.93D-01
 AX will form     1 AO Fock derivatives at one time.
 FoFJK:  IHMeth= 1 ICntrl=     0 DoSepK=T KAlg= 1 I1Cent= 0 FoldK=F
 LinEq1:  Iter=  1 NonCon=     1 RMS=7.01D-03 Max=1.10D-01
 FoFJK:  IHMeth= 1 ICntrl=     0 DoSepK=T KAlg= 1 I1Cent= 0 FoldK=F
 LinEq1:  Iter=  2 NonCon=     1 RMS=3.51D-03 Max=6.96D-02
 FoFJK:  IHMeth= 1 ICntrl=     0 DoSepK=T KAlg= 1 I1Cent= 0 FoldK=F
 LinEq1:  Iter=  3 NonCon=     1 RMS=1.70D-03 Max=2.46D-02
 FoFJK:  IHMeth= 1 ICntrl=     0 DoSepK=T KAlg= 1 I1Cent= 0 FoldK=F
 LinEq1:  Iter=  4 NonCon=     1 RMS=6.76D-04 Max=8.94D-03
 FoFJK:  IHMeth= 1 ICntrl=     0 DoSepK=T KAlg= 1 I1Cent= 0 FoldK=F
 LinEq1:  Iter=  5 NonCon=     1 RMS=2.49D-04 Max=4.27D-03
 FoFJK:  IHMeth= 1 ICntrl=     0 DoSepK=T KAlg= 1 I1Cent= 0 FoldK=F
 LinEq1:  Iter=  6 NonCon=     1 RMS=7.79D-05 Max=1.11D-03
 FoFJK:  IHMeth= 1 ICntrl=     0 DoSepK=T KAlg= 1 I1Cent= 0 FoldK=F
 LinEq1:  Iter=  7 NonCon=     1 RMS=1.62D-05 Max=1.41D-04
 FoFJK:  IHMeth= 1 ICntrl=     0 DoSepK=T KAlg= 1 I1Cent= 0 FoldK=F
 LinEq1:  Iter=  8 NonCon=     1 RMS=2.85D-06 Max=4.09D-05
 FoFJK:  IHMeth= 1 ICntrl=     0 DoSepK=T KAlg= 1 I1Cent= 0 FoldK=F
 LinEq1:  Iter=  9 NonCon=     1 RMS=5.17D-07 Max=5.81D-06
 FoFJK:  IHMeth= 1 ICntrl=     0 DoSepK=T KAlg= 1 I1Cent= 0 FoldK=F
 LinEq1:  Iter= 10 NonCon=     1 RMS=8.61D-08 Max=9.49D-07
 FoFJK:  IHMeth= 1 ICntrl=     0 DoSepK=T KAlg= 1 I1Cent= 0 FoldK=F
 LinEq1:  Iter= 11 NonCon=     1 RMS=1.80D-08 Max=1.69D-07
 FoFJK:  IHMeth= 1 ICntrl=     0 DoSepK=T KAlg= 1 I1Cent= 0 FoldK=F
 LinEq1:  Iter= 12 NonCon=     1 RMS=3.34D-09 Max=7.67D-08
 FoFJK:  IHMeth= 1 ICntrl=     0 DoSepK=T KAlg= 1 I1Cent= 0 FoldK=F
 LinEq1:  Iter= 13 NonCon=     1 RMS=6.33D-10 Max=2.06D-08
 FoFJK:  IHMeth= 1 ICntrl=     0 DoSepK=T KAlg= 1 I1Cent= 0 FoldK=F
 LinEq1:  Iter= 14 NonCon=     1 RMS=1.43D-10 Max=2.83D-09
 FoFJK:  IHMeth= 1 ICntrl=     0 DoSepK=T KAlg= 1 I1Cent= 0 FoldK=F
 LinEq1:  Iter= 15 NonCon=     0 RMS=2.77D-11 Max=4.40D-10
 Linear equations converged to 1.000D-10 1.000D-09 after    15 iterations.
 FoFJK:  IHMeth= 1 ICntrl=     0 DoSepK=T KAlg= 1 I1Cent= 0 FoldK=F
 End of Minotr Frequency-dependent properties file   721 does not exist.
 End of Minotr Frequency-dependent properties file   722 does not exist.
 Calling FoFJK, ICntrl=      5127 FMM=F ISym2X=0 I1Cent= 0 IOpClX= 0 NMat=1 NMatS=1 NMatT=0.
 FoFJK:  IHMeth= 1 ICntrl=  5127 DoSepK=T KAlg= 1 I1Cent= 0 FoldK=F
 -------------------------------------------------------------------
 Center     Atomic                   Forces (Hartrees/Bohr)
 Number     Number              X              Y              Z
 -------------------------------------------------------------------
      1        6           0.000342851   -0.000185455    0.000087422
      2        7          -0.000401708    0.000141014   -0.000127844
      3        8          -0.000116114    0.000042329   -0.000020985
      4        1           0.000183414   -0.000000916    0.000045032
      5        1           0.000112895   -0.000105600    0.000036012
      6        1          -0.000121338    0.000108629   -0.000019636
 -------------------------------------------------------------------
 Cartesian Forces:  Max     0.000401708 RMS     0.000159977

 GradGradGradGradGradGradGradGradGradGradGradGradGradGradGradGradGradGrad
 Berny optimization.
 Using GEDIIS/GDIIS optimizer.
 Internal  Forces:  Max     0.000209432 RMS     0.000098559
 Search for a local minimum.
 Step number   5 out of a maximum of   25
 All quantities printed in internal units (Hartrees-Bohrs-Radians)
 Mixed Optimization -- En-DIIS/RFO-DIIS
 Swaping is turned off.
 Update second derivatives using D2CorX and points    1    2    3    4    5
 DE= -2.23D-05 DEPred=-2.17D-05 R= 1.03D+00
 SS=  1.41D+00  RLast= 1.31D-02 DXNew= 8.4853D-01 3.9168D-02
 Trust test= 1.03D+00 RLast= 1.31D-02 DXMaxT set to 5.05D-01
 The second derivative matrix:
                          R1        R2        R3        R4        R5
           R1           0.51175
           R2           0.11364   0.56566
           R3           0.01315   0.02282   0.34822
           R4           0.00869  -0.00377  -0.00291   0.46627
           R5          -0.00769  -0.00737   0.00435  -0.00089   0.47659
           A1           0.01996   0.06658  -0.00543  -0.00342  -0.00052
           A2           0.00468  -0.04107  -0.00336   0.00133  -0.00284
           A3          -0.00783   0.01128  -0.00241  -0.00115   0.00302
           A4           0.00080   0.00987  -0.00301   0.00118  -0.00273
           A5           0.02343  -0.02342   0.00013  -0.00289   0.00029
           A6          -0.02430   0.01362   0.00288   0.00172   0.00244
           D1          -0.00409   0.00382   0.00024   0.00047  -0.00002
           D2           0.00080  -0.00079  -0.00008  -0.00008  -0.00002
           D3          -0.00131   0.00127   0.00011   0.00014   0.00002
           D4           0.00358  -0.00334  -0.00021  -0.00041   0.00001
                          A1        A2        A3        A4        A5
           A1           0.22713
           A2           0.01510   0.15968
           A3          -0.01004   0.00254   0.16110
           A4           0.00468   0.00509  -0.00246   0.16468
           A5          -0.00570  -0.00064  -0.00174   0.00125   0.15334
           A6           0.00102  -0.00447   0.00421  -0.00595   0.00544
           D1           0.00033  -0.00091   0.00061  -0.00111   0.00116
           D2          -0.00006   0.00015  -0.00011   0.00020  -0.00023
           D3           0.00010  -0.00026   0.00019  -0.00034   0.00037
           D4          -0.00029   0.00079  -0.00053   0.00097  -0.00102
                          A6        D1        D2        D3        D4
           A6           0.16051
           D1          -0.00006   0.02329
           D2           0.00003   0.00000   0.02327
           D3          -0.00003   0.00000   0.00000   0.02326
           D4           0.00005  -0.00002   0.00000   0.00000   0.02328
     Eigenvalues ---    0.02308   0.02327   0.02327   0.14101   0.14464
     Eigenvalues ---    0.16955   0.20069   0.34617   0.43216   0.46852
     Eigenvalues ---    0.47678   0.667911000.000001000.000001000.00000
 En-DIIS/RFO-DIIS IScMMF=        0 using points:     5    4
 RFO step:  Lambda=-3.60780715D-07.
 DIIS coeffs:      1.03243     -0.03243
 Iteration  1 RMS(Cart)=  0.00065937 RMS(Int)=  0.00000088
 Iteration  2 RMS(Cart)=  0.00000060 RMS(Int)=  0.00000059
 Variable       Old X    -DE/DX   Delta X   Delta X   Delta X     New X
                                  (DIIS)     (GDIIS)  (Total)
    R1        2.60059  -0.00011  -0.00023  -0.00023  -0.00045   2.60014
    R2        2.51824   0.00007   0.00017   0.00012   0.00029   2.51853
    R3        2.03253   0.00012  -0.00002   0.00039   0.00037   2.03290
    R4        1.89013   0.00001   0.00004   0.00001   0.00005   1.89017
    R5        1.88807   0.00004  -0.00002   0.00011   0.00010   1.88817
    A1        2.03273   0.00009   0.00003   0.00035   0.00038   2.03311
    A2        2.15728   0.00007  -0.00007   0.00056   0.00048   2.15776
    A3        2.09317  -0.00016   0.00005  -0.00091  -0.00086   2.09231
    A4        2.10756   0.00014  -0.00014   0.00085   0.00071   2.10826
    A5        2.09558   0.00007   0.00023   0.00042   0.00065   2.09624
    A6        2.08004  -0.00021  -0.00009  -0.00129  -0.00138   2.07866
    D1       -0.00290  -0.00006  -0.00005  -0.00247  -0.00252  -0.00543
    D2       -3.13989   0.00001   0.00002   0.00039   0.00041  -3.13947
    D3        3.13973  -0.00002  -0.00003  -0.00071  -0.00073   3.13899
    D4        0.00274   0.00005   0.00004   0.00216   0.00220   0.00495
         Item               Value     Threshold  Converged?
 Maximum Force            0.000209     0.000450     YES
 RMS     Force            0.000099     0.000300     YES
 Maximum Displacement     0.001247     0.001800     YES
 RMS     Displacement     0.000659     0.001200     YES
 Predicted change in Energy=-5.111326D-07
 Optimization completed.
    -- Stationary point found.
                           ----------------------------
                           !   Optimized Parameters   !
                           ! (Angstroms and Degrees)  !
 --------------------------                            --------------------------
 ! Name  Definition              Value          Derivative Info.                !
 --------------------------------------------------------------------------------
 ! R1    R(1,2)                  1.3762         -DE/DX =   -0.0001              !
 ! R2    R(1,3)                  1.3326         -DE/DX =    0.0001              !
 ! R3    R(1,6)                  1.0756         -DE/DX =    0.0001              !
 ! R4    R(2,4)                  1.0002         -DE/DX =    0.0                 !
 ! R5    R(2,5)                  0.9991         -DE/DX =    0.0                 !
 ! A1    A(2,1,3)              116.4669         -DE/DX =    0.0001              !
 ! A2    A(2,1,6)              123.6032         -DE/DX =    0.0001              !
 ! A3    A(3,1,6)              119.9299         -DE/DX =   -0.0002              !
 ! A4    A(1,2,4)              120.7542         -DE/DX =    0.0001              !
 ! A5    A(1,2,5)              120.068          -DE/DX =    0.0001              !
 ! A6    A(4,2,5)              119.1773         -DE/DX =   -0.0002              !
 ! D1    D(3,1,2,4)             -0.1663         -DE/DX =   -0.0001              !
 ! D2    D(3,1,2,5)           -179.9022         -DE/DX =    0.0                 !
 ! D3    D(6,1,2,4)            179.893          -DE/DX =    0.0                 !
 ! D4    D(6,1,2,5)              0.1571         -DE/DX =    0.0                 !
 --------------------------------------------------------------------------------
 GradGradGradGradGradGradGradGradGradGradGradGradGradGradGradGradGradGrad

                          Input orientation:                          
 ---------------------------------------------------------------------
 Center     Atomic      Atomic             Coordinates (Angstroms)
 Number     Number       Type             X           Y           Z
 ---------------------------------------------------------------------
      1          6           0       -0.117686    0.470953    0.000107
      2          7           0        1.101079   -0.168163   -0.001012
      3          8           0       -1.197680   -0.309704   -0.000048
      4          1           0        1.154854   -1.166927    0.000608
      5          1           0        1.945978    0.365124    0.000520
      6          1           0       -0.228822    1.540767    0.000142
 ---------------------------------------------------------------------
                    Distance matrix (angstroms):
                    1          2          3          4          5
     1  C    0.000000
     2  N    1.376175   0.000000
     3  O    1.332596   2.303112   0.000000
     4  H    2.074129   1.000212   2.503846   0.000000
     5  H    2.066376   0.999125   3.215272   1.724255   0.000000
     6  H    1.075571   2.165428   2.088763   3.040751   2.472224
                    6
     6  H    0.000000
 Symmetry turned off by external request.
 Stoichiometry    CH3NO
 Framework group  C1[X(CH3NO)]
 Deg. of freedom    12
 Full point group                 C1      NOp   1
 Rotational constants (GHZ):     60.1631968     11.1662382      9.4182261

 **********************************************************************

            Population analysis using the SCF density.

 **********************************************************************

 Alpha  occ. eigenvalues --  -19.17621 -14.43907 -10.37666  -1.08008  -0.98968
 Alpha  occ. eigenvalues --   -0.72434  -0.63875  -0.58030  -0.47078  -0.46775
 Alpha  occ. eigenvalues --   -0.33937  -0.32705
 Alpha virt. eigenvalues --   -0.00208   0.01880   0.01973   0.03420   0.06284
 Alpha virt. eigenvalues --    0.07464   0.08116   0.09417   0.10216   0.11380
 Alpha virt. eigenvalues --    0.12511   0.13932   0.16931   0.17382   0.18479
 Alpha virt. eigenvalues --    0.21613   0.21634   0.22133   0.23152   0.25332
 Alpha virt. eigenvalues --    0.27061   0.27692   0.30550   0.31801   0.32169
 Alpha virt. eigenvalues --    0.32938   0.33914   0.35176   0.36557   0.38858
 Alpha virt. eigenvalues --    0.38973   0.40485   0.42600   0.45140   0.45235
 Alpha virt. eigenvalues --    0.51256   0.52772   0.53569   0.54618   0.55930
 Alpha virt. eigenvalues --    0.57170   0.61035   0.67493   0.71702   0.72957
 Alpha virt. eigenvalues --    0.74012   0.74952   0.76644   0.77224   0.78536
 Alpha virt. eigenvalues --    0.80704   0.81039   0.83780   0.86224   0.86393
 Alpha virt. eigenvalues --    0.88366   0.89796   0.90110   0.93021   0.94448
 Alpha virt. eigenvalues --    0.95457   0.97219   0.98324   0.99962   1.01577
 Alpha virt. eigenvalues --    1.03054   1.04710   1.06951   1.10165   1.10837
 Alpha virt. eigenvalues --    1.13513   1.17741   1.21511   1.23879   1.25155
 Alpha virt. eigenvalues --    1.26187   1.26771   1.30286   1.32453   1.35721
 Alpha virt. eigenvalues --    1.38470   1.42047   1.44724   1.46760   1.50548
 Alpha virt. eigenvalues --    1.56571   1.58734   1.63300   1.69161   1.71185
 Alpha virt. eigenvalues --    1.79806   1.81955   1.85468   1.85523   1.87221
 Alpha virt. eigenvalues --    1.93371   1.97902   2.00655   2.07925   2.11845
 Alpha virt. eigenvalues --    2.14552   2.17373   2.19948   2.20802   2.23070
 Alpha virt. eigenvalues --    2.24472   2.28590   2.31622   2.34142   2.35063
 Alpha virt. eigenvalues --    2.39501   2.41974   2.46890   2.52352   2.52489
 Alpha virt. eigenvalues --    2.61036   2.63055   2.75600   2.84259   2.94313
 Alpha virt. eigenvalues --    2.95150   2.98806   3.12361   3.16065   3.26676
 Alpha virt. eigenvalues --    3.30857   3.39103   3.39981   3.45700   3.51429
 Alpha virt. eigenvalues --    3.59070   3.65264   3.67638   3.68658   3.73881
 Alpha virt. eigenvalues --    3.74864   3.79549   3.88056   3.94873   3.97603
 Alpha virt. eigenvalues --    4.02723   4.05152   4.11595   4.11748   4.15286
 Alpha virt. eigenvalues --    4.18314   4.27194   4.30246   4.36215   4.40554
 Alpha virt. eigenvalues --    4.44984   4.48233   4.48438   4.58907   4.63264
 Alpha virt. eigenvalues --    4.68518   4.72835   4.81088   4.88215   4.94911
 Alpha virt. eigenvalues --    4.99576   5.05758   5.12571   5.14761   5.22530
 Alpha virt. eigenvalues --    5.24252   5.28964   5.41513   5.44115   5.68139
 Alpha virt. eigenvalues --    5.74339   5.82233   5.83919   5.90972   5.94868
 Alpha virt. eigenvalues --    6.10873   6.26265   6.30778   6.43817   6.51294
 Alpha virt. eigenvalues --    6.57962   6.62106   6.63145   6.79822   6.85073
 Alpha virt. eigenvalues --    6.89819   7.01140   7.09882   7.16936   7.28171
 Alpha virt. eigenvalues --    7.33942   7.46600  12.69604  15.49014  16.91688
          Condensed to atoms (all electrons):
              1          2          3          4          5          6
     1  C    5.024274   0.404128   0.394863  -0.027498  -0.046291   0.259958
     2  N    0.404128   6.045748  -0.105557   0.412622   0.421671  -0.037753
     3  O    0.394863  -0.105557   8.297446   0.006461   0.002828  -0.029379
     4  H   -0.027498   0.412622   0.006461   0.564357  -0.081902   0.001846
     5  H   -0.046291   0.421671   0.002828  -0.081902   0.619834   0.004216
     6  H    0.259958  -0.037753  -0.029379   0.001846   0.004216   0.287916
 Mulliken atomic charges:
              1
     1  C   -0.009433
     2  N   -0.140859
     3  O   -0.566661
     4  H    0.124113
     5  H    0.079645
     6  H    0.513196
 Sum of Mulliken atomic charges =   0.00000
 Mulliken charges with hydrogens summed into heavy atoms:
              1
     1  C    0.503763
     2  N    0.062899
     3  O   -0.566661
 Sum of Mulliken charges with hydrogens summed into heavy atoms =   0.00000
 Electronic spatial extent (au):  <R**2>=            151.5348
 Charge=              0.0000 electrons
 Dipole moment (field-independent basis, Debye):
    X=              4.3219    Y=              1.4404    Z=              0.0046  Tot=              4.5556
 Quadrupole moment (field-independent basis, Debye-Ang):
   XX=            -18.7294   YY=            -14.9166   ZZ=            -19.4339
   XY=             -1.7716   XZ=              0.0074   YZ=             -0.0017
 Traceless Quadrupole moment (field-independent basis, Debye-Ang):
   XX=             -1.0361   YY=              2.7767   ZZ=             -1.7406
   XY=             -1.7716   XZ=              0.0074   YZ=             -0.0017
 Octapole moment (field-independent basis, Debye-Ang**2):
  XXX=             14.0430  YYY=             -0.0928  ZZZ=              0.0174  XYY=              2.7175
  XXY=              0.8553  XXZ=              0.0146  XZZ=             -1.1212  YZZ=             -0.0107
  YYZ=              0.0072  XYZ=             -0.0018
 Hexadecapole moment (field-independent basis, Debye-Ang**3):
 XXXX=           -117.6185 YYYY=            -35.6910 ZZZZ=            -19.8897 XXXY=              1.3288
 XXXZ=              0.0351 YYYX=             -5.9351 YYYZ=             -0.0069 ZZZX=              0.0222
 ZZZY=             -0.0044 XXYY=            -25.0371 XXZZ=            -26.9454 YYZZ=            -10.7614
 XXYZ=             -0.0024 YYXZ=              0.0087 ZZXY=             -0.1762
 N-N= 6.894801908112D+01 E-N=-5.360278274888D+02  KE= 1.685589714291D+02
 1\1\GINC-CLODOMIRA\FOpt\RTD-CAM-B3LYP-FC\Aug-CC-pVTZ\C1H3N1O1\DIEGOA\2
 5-Oct-2019\0\\# cam-b3lyp/aug-cc-pvtz opt nosymm td(root=1,nstates=20)
 \\Title\\0,1\C,-0.1176861695,0.4709531623,0.0001071264\N,1.1010786089,
 -0.168163084,-0.0010115479\O,-1.1976796467,-0.3097042886,-0.0000480959
 \H,1.1548537668,-1.1669274298,0.0006082664\H,1.9459775246,0.3651235414
 ,0.0005199456\H,-0.2288220841,1.5407670988,0.0001423054\\Version=EM64L
 -G09RevA.01\HF=-169.8750895\RMSD=3.379e-09\RMSF=1.600e-04\Dipole=0.979
 6971,0.1909916,0.001612\PG=C01 [X(C1H3N1O1)]\\@


 THERE ARE TWO THINGS THAT EVERYBODY THINKS THEY CAN DO BETTER THAN
 ANYONE ELSE - PUNCH THE FIRE, AND EDIT A DAILY PAPER.
 -- UNCLE ESEK, "CENTURY MAGAZINE", 1885
 Job cpu time:  0 days  5 hours  8 minutes  3.2 seconds.
 File lengths (MBytes):  RWF=    132 Int=      0 D2E=      0 Chk=     25 Scr=      1
 Normal termination of Gaussian 09 at Fri Oct 25 16:07:26 2019.
