 Entering Gaussian System, Link 0=g09
 Input=td1.com
 Output=td1.log
 Initial command:
 /home/diegoa/progs/g09/l1.exe /home/diegoa/g09scratch/Gau-25543.inp -scrdir=/home/diegoa/g09scratch/
 Default is to use a total of   4 processors:
                                4 via shared-memory
                                1 via Linda
 Entering Link 1 = /home/diegoa/progs/g09/l1.exe PID=     25546.
  
 Copyright (c) 1988,1990,1992,1993,1995,1998,2003,2009, Gaussian, Inc.
                  All Rights Reserved.
  
 This is part of the Gaussian(R) 09 program.  It is based on
 the Gaussian(R) 03 system (copyright 2003, Gaussian, Inc.),
 the Gaussian(R) 98 system (copyright 1998, Gaussian, Inc.),
 the Gaussian(R) 94 system (copyright 1995, Gaussian, Inc.),
 the Gaussian 92(TM) system (copyright 1992, Gaussian, Inc.),
 the Gaussian 90(TM) system (copyright 1990, Gaussian, Inc.),
 the Gaussian 88(TM) system (copyright 1988, Gaussian, Inc.),
 the Gaussian 86(TM) system (copyright 1986, Carnegie Mellon
 University), and the Gaussian 82(TM) system (copyright 1983,
 Carnegie Mellon University). Gaussian is a federally registered
 trademark of Gaussian, Inc.
  
 This software contains proprietary and confidential information,
 including trade secrets, belonging to Gaussian, Inc.
  
 This software is provided under written license and may be
 used, copied, transmitted, or stored only in accord with that
 written license.
  
 The following legend is applicable only to US Government
 contracts under FAR:
  
                    RESTRICTED RIGHTS LEGEND
  
 Use, reproduction and disclosure by the US Government is
 subject to restrictions as set forth in subparagraphs (a)
 and (c) of the Commercial Computer Software - Restricted
 Rights clause in FAR 52.227-19.
  
 Gaussian, Inc.
 340 Quinnipiac St., Bldg. 40, Wallingford CT 06492
  
  
 ---------------------------------------------------------------
 Warning -- This program may not be used in any manner that
 competes with the business of Gaussian, Inc. or will provide
 assistance to any competitor of Gaussian, Inc.  The licensee
 of this program is prohibited from giving any competitor of
 Gaussian, Inc. access to this program.  By using this program,
 the user acknowledges that Gaussian, Inc. is engaged in the
 business of creating and licensing software in the field of
 computational chemistry and represents and warrants to the
 licensee that it is not a competitor of Gaussian, Inc. and that
 it will not use this program in any manner prohibited above.
 ---------------------------------------------------------------
  

 Cite this work as:
 Gaussian 09, Revision A.01,
 M. J. Frisch, G. W. Trucks, H. B. Schlegel, G. E. Scuseria, 
 M. A. Robb, J. R. Cheeseman, G. Scalmani, V. Barone, B. Mennucci, 
 G. A. Petersson, H. Nakatsuji, M. Caricato, X. Li, H. P. Hratchian, 
 A. F. Izmaylov, J. Bloino, G. Zheng, J. L. Sonnenberg, M. Hada, 
 M. Ehara, K. Toyota, R. Fukuda, J. Hasegawa, M. Ishida, T. Nakajima, 
 Y. Honda, O. Kitao, H. Nakai, T. Vreven, J. A. Montgomery, Jr., 
 J. E. Peralta, F. Ogliaro, M. Bearpark, J. J. Heyd, E. Brothers, 
 K. N. Kudin, V. N. Staroverov, R. Kobayashi, J. Normand, 
 K. Raghavachari, A. Rendell, J. C. Burant, S. S. Iyengar, J. Tomasi, 
 M. Cossi, N. Rega, J. M. Millam, M. Klene, J. E. Knox, J. B. Cross, 
 V. Bakken, C. Adamo, J. Jaramillo, R. Gomperts, R. E. Stratmann, 
 O. Yazyev, A. J. Austin, R. Cammi, C. Pomelli, J. W. Ochterski, 
 R. L. Martin, K. Morokuma, V. G. Zakrzewski, G. A. Voth, 
 P. Salvador, J. J. Dannenberg, S. Dapprich, A. D. Daniels, 
 O. Farkas, J. B. Foresman, J. V. Ortiz, J. Cioslowski, 
 and D. J. Fox, Gaussian, Inc., Wallingford CT, 2009.
 
 ******************************************
 Gaussian 09:  EM64L-G09RevA.01  8-May-2009
                22-Oct-2019 
 ******************************************
 %chk=td1.chk
 %NProcShared=4
 Will use up to    4 processors via shared memory.
 Default route:  MP2=Direct MaxDisk=1000GB DenFit
 ----------------------------------------------------------
 # cam-b3lyp/aug-cc-pvtz force nosymm td(root=1,nstates=20)
 ----------------------------------------------------------
 1/10=7,30=1,38=1/1,3;
 2/12=2,15=1,17=6,18=5,40=1/2;
 3/5=16,6=1,7=10,11=2,16=1,25=1,30=1,71=1,74=-40,82=47/1,2,8,3;
 4//1;
 5/5=2,38=5/2;
 8/6=1,10=1,107=1,108=20/1;
 9/8=1,15=2,41=20,42=1/14;
 10/5=4,31=1/2;
 6/7=2,8=2,9=2,10=2,18=1/1;
 7/12=6,13=5,14=1,29=1,30=1/1,2,3,16;
 1/10=7,30=1/3;
 99//99;
 -----
 Title
 -----
 Symbolic Z-matrix:
 Charge =  0 Multiplicity = 1
 6                    -0.16086   0.38626  0. 
 7                     1.07717  -0.15707  -0.00002 
 8                    -1.18806  -0.24585  -0.00003 
 1                     1.17465  -1.15796   0.00013 
 1                     1.89825   0.41836   0.00023 
 1                    -0.14343   1.4883    0.00001 
 

 GradGradGradGradGradGradGradGradGradGradGradGradGradGradGradGradGradGrad
 Berny optimization.
 Initialization pass.
 Trust Radius=3.00D-01 FncErr=1.00D-07 GrdErr=1.00D-07
 Number of steps in this run=   2 maximum allowed number of steps=   2.
 GradGradGradGradGradGradGradGradGradGradGradGradGradGradGradGradGradGrad

                          Input orientation:                          
 ---------------------------------------------------------------------
 Center     Atomic      Atomic             Coordinates (Angstroms)
 Number     Number       Type             X           Y           Z
 ---------------------------------------------------------------------
      1          6           0       -0.160857    0.386261   -0.000004
      2          7           0        1.077168   -0.157071   -0.000017
      3          8           0       -1.188063   -0.245846   -0.000027
      4          1           0        1.174650   -1.157961    0.000127
      5          1           0        1.898249    0.418362    0.000231
      6          1           0       -0.143425    1.488304    0.000008
 ---------------------------------------------------------------------
                    Distance matrix (angstroms):
                    1          2          3          4          5
     1  C    0.000000
     2  N    1.352004   0.000000
     3  O    1.206114   2.266970   0.000000
     4  H    2.041617   1.005626   2.532660   0.000000
     5  H    2.059356   1.002645   3.156975   1.734471   0.000000
     6  H    1.102181   2.048684   2.024486   2.956356   2.305040
                    6
     6  H    0.000000
 Symmetry turned off by external request.
 Stoichiometry    CH3NO
 Framework group  C1[X(CH3NO)]
 Deg. of freedom    12
 Full point group                 C1      NOp   1
 Rotational constants (GHZ):     73.9247235     11.4844788      9.9402277
 Standard basis: Aug-CC-pVTZ (5D, 7F)
 Integral buffers will be    131072 words long.
 Raffenetti 2 integral format.
 Two-electron integral symmetry is turned off.
   207 basis functions,   297 primitive gaussians,   240 cartesian basis functions
    12 alpha electrons       12 beta electrons
       nuclear repulsion energy        71.5517341799 Hartrees.
 NAtoms=    6 NActive=    6 NUniq=    6 SFac= 7.50D-01 NAtFMM=   80 NAOKFM=F Big=F
 Standard density basis: Auto (5D, 7F)
   591 Density fitting functions
 One-electron integrals computed using PRISM.
 NBasis=   207 RedAO= T  NBF=   207
 NBsUse=   207 1.00D-06 NBFU=   207
 Harris functional with IExCor=20419 diagonalized for initial guess.
 ExpMin= 2.53D-02 ExpMax= 1.53D+04 ExpMxC= 5.22D+02 IAcc=3 IRadAn=         0 AccDes= 0.00D+00
 HarFok:  IExCor=20419 AccDes= 0.00D+00 IRadAn=         0 IDoV= 1
 ScaDFX=  1.000000  1.000000  1.000000  1.000000
 FoFCou: FMM=F IPFlag=           0 FMFlag=      100000 FMFlg1=           0
         NFxFlg=           0 DoJE=T BraDBF=F KetDBF=T FulRan=T
         Omega=  0.000000  0.000000  1.000000  0.000000  0.000000 ICntrl=     500 IOpCl=  0
         NMat0=    1 NMatS0=    1 NMatT0=    0 NMatD0=    1 NMtDS0=    0 NMtDT0=    0
         I1Cent=           4 NGrid=           0.
 Symmetry not used in FoFCou.
 Requested convergence on RMS density matrix=1.00D-08 within 128 cycles.
 Requested convergence on MAX density matrix=1.00D-06.
 Requested convergence on             energy=1.00D-06.
 No special actions if energy rises.
 FoFJK:  IHMeth= 1 ICntrl=     0 DoSepK=T KAlg= 1 I1Cent= 0 FoldK=F
 FoFJK:  IHMeth= 1 ICntrl=     0 DoSepK=T KAlg= 1 I1Cent= 0 FoldK=F
 FoFJK:  IHMeth= 1 ICntrl=     0 DoSepK=T KAlg= 1 I1Cent= 0 FoldK=F
 FoFJK:  IHMeth= 1 ICntrl=     0 DoSepK=T KAlg= 1 I1Cent= 0 FoldK=F
 FoFJK:  IHMeth= 1 ICntrl=     0 DoSepK=T KAlg= 1 I1Cent= 0 FoldK=F
 FoFJK:  IHMeth= 1 ICntrl=     0 DoSepK=T KAlg= 1 I1Cent= 0 FoldK=F
 FoFJK:  IHMeth= 1 ICntrl=     0 DoSepK=T KAlg= 1 I1Cent= 0 FoldK=F
 FoFJK:  IHMeth= 1 ICntrl=     0 DoSepK=T KAlg= 1 I1Cent= 0 FoldK=F
 FoFJK:  IHMeth= 1 ICntrl=     0 DoSepK=T KAlg= 1 I1Cent= 0 FoldK=F
 FoFJK:  IHMeth= 1 ICntrl=     0 DoSepK=T KAlg= 1 I1Cent= 0 FoldK=F
 FoFJK:  IHMeth= 1 ICntrl=     0 DoSepK=T KAlg= 1 I1Cent= 0 FoldK=F
 SCF Done:  E(RCAM-B3LYP) =  -169.897789354     A.U. after   11 cycles
             Convg  =    0.3076D-08             -V/T =  2.0055
 ExpMin= 2.53D-02 ExpMax= 1.53D+04 ExpMxC= 5.22D+02 IAcc=3 IRadAn=         5 AccDes= 0.00D+00
 HarFok:  IExCor=  205 AccDes= 0.00D+00 IRadAn=         5 IDoV=-2
 ScaDFX=  1.000000  1.000000  1.000000  1.000000
 Range of M.O.s used for correlation:     4   207
 NBasis=   207 NAE=    12 NBE=    12 NFC=     3 NFV=     0
 NROrb=    204 NOA=     9 NOB=     9 NVA=   195 NVB=   195

 **** Warning!!: The largest alpha MO coefficient is  0.30889685D+02

 Would need an additional   658600000 words for in-memory AO integral storage.
    80 initial guesses have been made.
 Convergence on wavefunction:    0.000001000000000
 Iteration     1 Dimension    80 NMult    80
 CISAX will form    80 AO SS matrices at one time.
 FoFJK:  IHMeth= 1 ICntrl=     0 DoSepK=T KAlg= 1 I1Cent= 0 FoldK=F
 FoFJK:  IHMeth= 1 ICntrl=     0 DoSepK=T KAlg= 1 I1Cent= 0 FoldK=F
 New state      1 was old state      6
 New state      3 was old state      1
 New state      4 was old state      3
 New state      6 was old state      4
 New state      7 was old state      8
 New state      8 was old state      7
 New state      9 was old state     11
 New state     10 was old state      9
 New state     11 was old state     12
 New state     12 was old state     13
 New state     13 was old state     14
 New state     14 was old state     15
 New state     15 was old state     20
 New state     16 was old state     17
 New state     17 was old state     16
 New state     19 was old state     10
 New state     20 was old state     19
 Iteration     2 Dimension   120 NMult   120
 FoFJK:  IHMeth= 1 ICntrl=     0 DoSepK=T KAlg= 1 I1Cent= 0 FoldK=F
 FoFJK:  IHMeth= 1 ICntrl=     0 DoSepK=T KAlg= 1 I1Cent= 0 FoldK=F
 New state      7 was old state      9
 New state      8 was old state      7
 New state      9 was old state      8
 New state     12 was old state     13
 New state     13 was old state     12
 New state     18 was old state     19
 New state     19 was old state     18
 Iteration     3 Dimension   160 NMult   160
 FoFJK:  IHMeth= 1 ICntrl=     0 DoSepK=T KAlg= 1 I1Cent= 0 FoldK=F
 FoFJK:  IHMeth= 1 ICntrl=     0 DoSepK=T KAlg= 1 I1Cent= 0 FoldK=F
 Iteration     4 Dimension   200 NMult   200
 FoFJK:  IHMeth= 1 ICntrl=     0 DoSepK=T KAlg= 1 I1Cent= 0 FoldK=F
 FoFJK:  IHMeth= 1 ICntrl=     0 DoSepK=T KAlg= 1 I1Cent= 0 FoldK=F
 Iteration     5 Dimension   240 NMult   240
 FoFJK:  IHMeth= 1 ICntrl=     0 DoSepK=T KAlg= 1 I1Cent= 0 FoldK=F
 FoFJK:  IHMeth= 1 ICntrl=     0 DoSepK=T KAlg= 1 I1Cent= 0 FoldK=F
 Iteration     6 Dimension   280 NMult   280
 FoFJK:  IHMeth= 1 ICntrl=     0 DoSepK=T KAlg= 1 I1Cent= 0 FoldK=F
 FoFJK:  IHMeth= 1 ICntrl=     0 DoSepK=T KAlg= 1 I1Cent= 0 FoldK=F
 Iteration     7 Dimension   318 NMult   318
 FoFJK:  IHMeth= 1 ICntrl=     0 DoSepK=T KAlg= 1 I1Cent= 0 FoldK=F
 FoFJK:  IHMeth= 1 ICntrl=     0 DoSepK=T KAlg= 1 I1Cent= 0 FoldK=F
 Davidson failed to converge within maximum sub-space dimensions.
  Restart with updated initial guess:
 Iteration     1 Dimension    54 NMult   372
 FoFJK:  IHMeth= 1 ICntrl=     0 DoSepK=T KAlg= 1 I1Cent= 0 FoldK=F
 FoFJK:  IHMeth= 1 ICntrl=     0 DoSepK=T KAlg= 1 I1Cent= 0 FoldK=F
 Iteration     2 Dimension    94 NMult   412
 FoFJK:  IHMeth= 1 ICntrl=     0 DoSepK=T KAlg= 1 I1Cent= 0 FoldK=F
 FoFJK:  IHMeth= 1 ICntrl=     0 DoSepK=T KAlg= 1 I1Cent= 0 FoldK=F
 ***********************************************************************
 Excited states from <AA,BB:AA,BB> singles matrix:
 ***********************************************************************
 
 Ground to excited state transition electric dipole moments (Au):
       state          X           Y           Z        Dip. S.      Osc.
         1         0.0000      0.0000      0.0758      0.0057      0.0008
         2        -0.0008     -0.0003      0.3229      0.1043      0.0172
         3        -0.1623     -0.0754     -0.0016      0.0320      0.0053
         4         0.1879      0.5805      0.0000      0.3723      0.0663
         5         0.0000     -0.0002      0.0498      0.0025      0.0005
         6        -0.4578      0.4145      0.0000      0.3814      0.0714
         7         1.0965      0.0056      0.0000      1.2023      0.2306
         8         0.0001     -0.0001     -0.2549      0.0650      0.0129
         9        -0.0002     -0.0001      0.0305      0.0009      0.0002
        10        -0.2043     -0.0137      0.0000      0.0419      0.0087
        11        -0.0238     -0.2260      0.0000      0.0516      0.0110
        12         0.0378     -0.0490     -0.0001      0.0038      0.0008
        13         0.0000      0.0000      0.1776      0.0315      0.0070
        14         0.0000      0.0000     -0.1523      0.0232      0.0052
        15         0.3772      0.0824      0.0001      0.1491      0.0345
        16         0.0000     -0.0002      0.0618      0.0038      0.0009
        17         0.0638     -0.2702     -0.0002      0.0771      0.0183
        18        -0.3584      0.1296     -0.0002      0.1452      0.0346
        19        -0.0002      0.0000      0.1008      0.0102      0.0024
        20         0.0001      0.0002     -0.1994      0.0398      0.0096
 Ground to excited state transition velocity dipole moments (Au):
       state          X           Y           Z        Dip. S.      Osc.
         1         0.0000      0.0000     -0.0166      0.0003      0.0009
         2         0.0002      0.0001     -0.0799      0.0064      0.0172
         3         0.0408      0.0183      0.0004      0.0020      0.0054
         4        -0.0501     -0.1551      0.0000      0.0266      0.0663
         5         0.0000      0.0001     -0.0137      0.0002      0.0005
         6         0.1283     -0.1168      0.0000      0.0301      0.0714
         7        -0.3140     -0.0019      0.0000      0.0986      0.2285
         8         0.0000      0.0000      0.0751      0.0056      0.0127
         9         0.0001      0.0000     -0.0081      0.0001      0.0001
        10         0.0613      0.0036      0.0000      0.0038      0.0080
        11         0.0088      0.0716      0.0000      0.0052      0.0109
        12        -0.0150      0.0146      0.0000      0.0004      0.0009
        13         0.0000      0.0000     -0.0596      0.0036      0.0072
        14         0.0000      0.0000      0.0522      0.0027      0.0054
        15        -0.1314     -0.0269      0.0000      0.0180      0.0345
        16         0.0000      0.0001     -0.0187      0.0004      0.0007
        17        -0.0249      0.0963      0.0001      0.0099      0.0186
        18         0.1269     -0.0450      0.0001      0.0181      0.0339
        19         0.0001      0.0000     -0.0341      0.0012      0.0022
        20         0.0000     -0.0001      0.0712      0.0051      0.0094
 Ground to excited state transition magnetic dipole moments (Au):
       state          X           Y           Z
         1        -0.9794     -0.4077      0.0000
         2         0.0221      0.3971      0.0012
         3         0.0000     -0.0019      0.2662
         4         0.0001      0.0000     -0.0407
         5         0.0214      0.0450      0.0001
         6        -0.0001      0.0001      0.1672
         7         0.0000      0.0000      0.6671
         8         0.0563      0.2074      0.0000
         9        -0.0429      0.3631     -0.0002
        10         0.0000     -0.0001      0.0653
        11         0.0000     -0.0001     -0.2351
        12         0.0000     -0.0001      0.3039
        13         0.1039     -0.3682      0.0001
        14        -0.0726     -0.4757     -0.0001
        15         0.0000      0.0000     -0.1430
        16         0.0873      0.0137      0.0002
        17        -0.0001     -0.0001      0.0469
        18         0.0000     -0.0001     -0.2203
        19        -0.0528     -0.1069     -0.0001
        20        -0.1098     -0.1578      0.0000
 <0|del|b> * <b|rxdel|0> + <0|del|b> * <b|delr+rdel|0>
 Rotatory Strengths (R) in cgs (10**-40 erg-esu-cm/Gauss)
       state          XX          YY          ZZ    R(velocity)
         1        -0.0013      0.0131      0.0094      0.0071
 Total R(velocity) tensor for State=          1
                 1             2             3 
      1  -0.130948D-02 -0.515682D-02  0.000000D+00
      2   0.678350D-03  0.131335D-01  0.000000D+00
      3  -0.236343D+02 -0.109771D+02  0.935708D-02
         2        -0.1429     -0.0351      0.0004     -0.0592
 Total R(velocity) tensor for State=          2
                 1             2             3 
      1  -0.142915D+00 -0.207442D+00 -0.554726D-03
      2  -0.225677D+00 -0.350908D-01 -0.571029D-03
      3  -0.667413D-01  0.572941D+00  0.439292D-03
         3         0.1485      0.0408      0.0034      0.0642
 Total R(velocity) tensor for State=          3
                 1             2             3 
      1   0.148505D+00  0.219042D+00 -0.259738D+02
      2   0.234298D+00  0.407730D-01 -0.265781D+02
      3  -0.229166D+01  0.510344D+01  0.335660D-02
         4         0.0058     -0.0066     -0.0061     -0.0023
 Total R(velocity) tensor for State=          4
                 1             2             3 
      1   0.578578D-02 -0.286648D-02 -0.616474D+02
      2   0.199965D-01 -0.661305D-02 -0.960176D+01
      3   0.515933D-01 -0.166615D-01 -0.607243D-02
         5         0.0028     -0.0006      0.0001      0.0008
 Total R(velocity) tensor for State=          5
                 1             2             3 
      1   0.280931D-02 -0.375521D-02 -0.159712D-04
      2  -0.148539D-01 -0.554191D-03 -0.894197D-05
      3  -0.195668D+01  0.196324D+00  0.544520D-04
         6        -0.0288     -0.0152     -0.0088     -0.0176
 Total R(velocity) tensor for State=          6
                 1             2             3 
      1  -0.287751D-01 -0.324476D-01  0.323063D+02
      2  -0.133203D-01 -0.151611D-01  0.203389D+02
      3   0.139409D+02  0.153111D+02 -0.875267D-02
         7         0.0022     -0.0032     -0.0241     -0.0084
 Total R(velocity) tensor for State=          7
                 1             2             3 
      1   0.224740D-02  0.575189D-02  0.366184D+03
      2   0.174843D-03 -0.324629D-02  0.248557D+02
      3  -0.242103D+00  0.394912D+02 -0.240639D-01
         8         0.0041     -0.0054      0.0039      0.0009
 Total R(velocity) tensor for State=          8
                 1             2             3 
      1   0.405360D-02  0.831806D-02  0.000000D+00
      2  -0.767661D-02 -0.535409D-02 -0.188156D-05
      3  -0.803643D-01 -0.188297D+02  0.391657D-02
         9         0.0145     -0.0036      0.0021      0.0043
 Total R(velocity) tensor for State=          9
                 1             2             3 
      1   0.144838D-01 -0.429909D-01  0.189147D-04
      2   0.105462D-02 -0.361196D-02  0.000000D+00
      3  -0.272507D+00  0.181596D+01  0.212105D-02
        10        -0.0020      0.0039      0.0010      0.0010
 Total R(velocity) tensor for State=         10
                 1             2             3 
      1  -0.203361D-02  0.373161D-02 -0.105056D+02
      2  -0.647396D-03  0.385799D-02 -0.243886D+01
      3  -0.112311D+01  0.191675D+02  0.102913D-02
        11        -0.0077     -0.0003     -0.0028     -0.0036
 Total R(velocity) tensor for State=         11
                 1             2             3 
      1  -0.772033D-02  0.127017D-02  0.204221D+01
      2  -0.719881D-02 -0.261204D-03 -0.732355D+01
      3   0.931219D+00 -0.114619D+00 -0.275521D-02
        12         0.0078      0.0134     -0.0011      0.0067
 Total R(velocity) tensor for State=         12
                 1             2             3 
      1   0.778603D-02 -0.152128D-02  0.383049D+01
      2  -0.441000D-02  0.133844D-01 -0.721092D+01
      3   0.226982D+01  0.233036D+01 -0.107760D-02
        13        -0.0052     -0.0037      0.0005     -0.0028
 Total R(velocity) tensor for State=         13
                 1             2             3 
      1  -0.517425D-02  0.191874D-02  0.000000D+00
      2   0.107788D-01 -0.370537D-02  0.100725D-05
      3   0.322353D+01 -0.205723D+01  0.464068D-03
        14         0.0038     -0.0075      0.0071      0.0011
 Total R(velocity) tensor for State=         14
                 1             2             3 
      1   0.378569D-02 -0.697060D-02 -0.157704D-05
      2   0.123222D-03 -0.750723D-02 -0.215969D-05
      3   0.111919D+02  0.199418D+02  0.708061D-02
        15         0.0028      0.0079     -0.0161     -0.0018
 Total R(velocity) tensor for State=         15
                 1             2             3 
      1   0.282079D-02 -0.969886D-02 -0.618299D+01
      2   0.165449D-03  0.792091D-02 -0.132616D+02
      3  -0.691193D-01  0.337383D+00 -0.161232D-01
        16        -0.0093     -0.0052      0.0081     -0.0022
 Total R(velocity) tensor for State=         16
                 1             2             3 
      1  -0.932534D-02 -0.164823D-02 -0.853580D-05
      2  -0.401746D-03 -0.522209D-02 -0.148844D-04
      3   0.279211D+01  0.245381D+01  0.808021D-02
        17        -0.0088     -0.0061      0.0047     -0.0034
 Total R(velocity) tensor for State=         17
                 1             2             3 
      1  -0.878904D-02  0.534163D-02 -0.130411D+02
      2   0.428765D-01 -0.613763D-02  0.295009D+02
      3   0.666278D+01  0.172288D+01  0.469054D-02
        18         0.0053     -0.0219      0.0036     -0.0043
 Total R(velocity) tensor for State=         18
                 1             2             3 
      1   0.531682D-02  0.309587D-01  0.113878D+02
      2   0.178739D-01 -0.219282D-01 -0.515681D+02
      3  -0.733965D+01 -0.206916D+02  0.360224D-02
        19         0.0009      0.0001     -0.0019     -0.0003
 Total R(velocity) tensor for State=         19
                 1             2             3 
      1   0.871685D-03  0.943750D-02  0.000000D+00
      2  -0.646269D-02  0.138481D-03 -0.143022D-04
      3  -0.122985D+01 -0.528831D+01 -0.187430D-02
        20         0.0114      0.0243     -0.0067      0.0097
 Total R(velocity) tensor for State=         20
                 1             2             3 
      1   0.114468D-01 -0.132044D-01 -0.774198D-05
      2  -0.513607D-01  0.243358D-01  0.124043D-05
      3  -0.489652D+01 -0.474092D+01 -0.665677D-02
 1/2[<0|r|b>*<b|rxdel|0> + (<0|rxdel|b>*<b|r|0>)*]
 Rotatory Strengths (R) in cgs (10**-40 erg-esu-cm/Gauss)
       state          XX          YY          ZZ     R(length)     R(au)
         1         0.0234     -0.0009     -0.0008      0.0072      0.0000
         2         0.0118      0.0966     -0.2840     -0.0585     -0.0001
         3        -0.0041     -0.0994      0.2941      0.0635      0.0001
         4        -0.0070      0.0004     -0.0003     -0.0023      0.0000
         5         0.0003      0.0073     -0.0053      0.0008      0.0000
         6        -0.0186     -0.0328     -0.0014     -0.0176      0.0000
         7        -0.0283     -0.0001      0.0032     -0.0084      0.0000
         8        -0.0040      0.0076     -0.0012      0.0008      0.0000
         9        -0.0071      0.0171      0.0033      0.0044      0.0000
        10         0.0051     -0.0006     -0.0015      0.0010      0.0000
        11         0.0003     -0.0170      0.0057     -0.0037      0.0000
        12         0.0003     -0.0045      0.0237      0.0065      0.0000
        13         0.0006      0.0083     -0.0167     -0.0026      0.0000
        14         0.0011      0.0156     -0.0124      0.0014      0.0000
        15        -0.0114      0.0009      0.0055     -0.0016      0.0000
        16         0.0015      0.0015     -0.0108     -0.0026      0.0000
        17         0.0037     -0.0195      0.0053     -0.0035      0.0000
        18         0.0094      0.0054     -0.0274     -0.0042      0.0000
        19        -0.0079      0.0012      0.0062     -0.0002      0.0000
        20         0.0070      0.0210      0.0014      0.0098      0.0000
  1/2[<0|del|b>*<b|r|0> + (<0|r|b>*<b|del|0>)*] (Au)
       state          X           Y           Z        Dip. S.   Osc.(frdel)
         1         0.0000      0.0000     -0.0013      0.0013      0.0008
         2         0.0000      0.0000     -0.0258      0.0258      0.0172
         3        -0.0066     -0.0014      0.0000      0.0080      0.0053
         4        -0.0094     -0.0901      0.0000      0.0995      0.0663
         5         0.0000      0.0000     -0.0007      0.0007      0.0005
         6        -0.0587     -0.0484      0.0000      0.1071      0.0714
         7        -0.3443      0.0000      0.0000      0.3443      0.2296
         8         0.0000      0.0000     -0.0192      0.0192      0.0128
         9         0.0000      0.0000     -0.0002      0.0002      0.0002
        10        -0.0125      0.0000      0.0000      0.0126      0.0084
        11        -0.0002     -0.0162      0.0000      0.0164      0.0109
        12        -0.0006     -0.0007      0.0000      0.0013      0.0009
        13         0.0000      0.0000     -0.0106      0.0106      0.0071
        14         0.0000      0.0000     -0.0080      0.0080      0.0053
        15        -0.0495     -0.0022      0.0000      0.0518      0.0345
        16         0.0000      0.0000     -0.0012      0.0012      0.0008
        17        -0.0016     -0.0260      0.0000      0.0276      0.0184
        18        -0.0455     -0.0058      0.0000      0.0513      0.0342
        19         0.0000      0.0000     -0.0034      0.0034      0.0023
        20         0.0000      0.0000     -0.0142      0.0142      0.0095
 Ground to excited state transition densities written to RWF  633

 Excitation energies and oscillator strengths:
 
 Excited state symmetry could not be determined.
 Excited State   1:      Singlet-?Sym    5.6578 eV  219.14 nm  f=0.0008  <S**2>=0.000
      12 -> 16         0.60835
      12 -> 17        -0.32589
      12 -> 22         0.10768
 This state for optimization and/or second-order correction.
 Copying the excited state density for this state as the 1-particle RhoCI density.
 
 Excited state symmetry could not be determined.
 Excited State   2:      Singlet-?Sym    6.7266 eV  184.32 nm  f=0.0172  <S**2>=0.000
      11 -> 13         0.66417
      11 -> 18         0.11126
      11 -> 19        -0.13488
      11 -> 20        -0.12128
 
 Excited state symmetry could not be determined.
 Excited State   3:      Singlet-?Sym    6.7506 eV  183.66 nm  f=0.0053  <S**2>=0.000
      11 -> 16         0.15990
      11 -> 17        -0.10968
      12 -> 13         0.62652
      12 -> 15         0.16659
      12 -> 19        -0.12471
 
 Excited state symmetry could not be determined.
 Excited State   4:      Singlet-?Sym    7.2737 eV  170.46 nm  f=0.0663  <S**2>=0.000
      11 -> 16         0.10876
      12 -> 14         0.64931
      12 -> 19        -0.11407
      12 -> 21        -0.16202
 
 Excited state symmetry could not be determined.
 Excited State   5:      Singlet-?Sym    7.4984 eV  165.35 nm  f=0.0005  <S**2>=0.000
      11 -> 14         0.64231
      11 -> 15         0.14487
      11 -> 21        -0.21949
 
 Excited state symmetry could not be determined.
 Excited State   6:      Singlet-?Sym    7.6410 eV  162.26 nm  f=0.0714  <S**2>=0.000
      11 -> 16        -0.25977
      11 -> 17         0.18605
      12 -> 14         0.12059
      12 -> 15         0.52920
      12 -> 18        -0.25164
      12 -> 19        -0.12314
      12 -> 23        -0.11617
 
 Excited state symmetry could not be determined.
 Excited State   7:      Singlet-?Sym    7.8286 eV  158.37 nm  f=0.2306  <S**2>=0.000
      11 -> 16         0.44863
      11 -> 17        -0.32591
      12 -> 13        -0.28079
      12 -> 15         0.28967
 
 Excited state symmetry could not be determined.
 Excited State   8:      Singlet-?Sym    8.0887 eV  153.28 nm  f=0.0129  <S**2>=0.000
      11 -> 14        -0.11046
      11 -> 15         0.45353
      11 -> 23        -0.11670
      12 -> 16        -0.23443
      12 -> 17        -0.43078
 
 Excited state symmetry could not be determined.
 Excited State   9:      Singlet-?Sym    8.0980 eV  153.10 nm  f=0.0002  <S**2>=0.000
      11 -> 14        -0.10643
      11 -> 15         0.45247
      11 -> 23        -0.10899
      12 -> 16         0.23556
      12 -> 17         0.43573
 
 Excited state symmetry could not be determined.
 Excited State  10:      Singlet-?Sym    8.5050 eV  145.78 nm  f=0.0087  <S**2>=0.000
      11 -> 16         0.39606
      11 -> 17         0.57294
 
 Excited state symmetry could not be determined.
 Excited State  11:      Singlet-?Sym    8.6616 eV  143.14 nm  f=0.0110  <S**2>=0.000
      12 -> 15         0.27300
      12 -> 18         0.44654
      12 -> 19         0.43978
 
 Excited state symmetry could not be determined.
 Excited State  12:      Singlet-?Sym    8.9113 eV  139.13 nm  f=0.0008  <S**2>=0.000
      11 -> 16         0.11231
      12 -> 14         0.12111
      12 -> 18        -0.38568
      12 -> 19         0.43526
      12 -> 20        -0.33181
 
 Excited state symmetry could not be determined.
 Excited State  13:      Singlet-?Sym    9.0129 eV  137.56 nm  f=0.0070  <S**2>=0.000
      11 -> 18         0.56063
      11 -> 19         0.32425
      11 -> 24        -0.20807
      11 -> 29         0.11291
 
 Excited state symmetry could not be determined.
 Excited State  14:      Singlet-?Sym    9.1694 eV  135.21 nm  f=0.0052  <S**2>=0.000
      11 -> 13         0.13776
      11 -> 18        -0.28567
      11 -> 19         0.55975
      11 -> 20        -0.18628
 
 Excited state symmetry could not be determined.
 Excited State  15:      Singlet-?Sym    9.4565 eV  131.11 nm  f=0.0345  <S**2>=0.000
      12 -> 13         0.12359
      12 -> 18        -0.22052
      12 -> 19         0.15706
      12 -> 20         0.52186
      12 -> 21        -0.23022
      12 -> 23         0.23092
 
 Excited state symmetry could not be determined.
 Excited State  16:      Singlet-?Sym    9.5959 eV  129.21 nm  f=0.0009  <S**2>=0.000
      11 -> 13         0.17727
      11 -> 19         0.11901
      11 -> 20         0.63020
      11 -> 23        -0.12018
 
 Excited state symmetry could not be determined.
 Excited State  17:      Singlet-?Sym    9.6781 eV  128.11 nm  f=0.0183  <S**2>=0.000
      12 -> 14         0.14346
      12 -> 20         0.17026
      12 -> 21         0.61185
      12 -> 23         0.17283
      12 -> 26         0.12516
 
 Excited state symmetry could not be determined.
 Excited State  18:      Singlet-?Sym    9.7207 eV  127.55 nm  f=0.0346  <S**2>=0.000
      12 -> 19        -0.13897
      12 -> 20        -0.21769
      12 -> 21        -0.11674
      12 -> 23         0.49791
      12 -> 24        -0.36559
 
 Excited state symmetry could not be determined.
 Excited State  19:      Singlet-?Sym    9.7465 eV  127.21 nm  f=0.0024  <S**2>=0.000
      12 -> 17         0.10168
      12 -> 22         0.68309
 
 Excited state symmetry could not be determined.
 Excited State  20:      Singlet-?Sym    9.8128 eV  126.35 nm  f=0.0096  <S**2>=0.000
      11 -> 14         0.19904
      11 -> 18        -0.10392
      11 -> 21         0.51368
      11 -> 23         0.32364
      11 -> 24        -0.14818
 SavETr:  write IOETrn=   770 NScale= 10 NData=  16 NLR=1 LETran=     370.
 FoFJK:  IHMeth= 1 ICntrl=     0 DoSepK=T KAlg= 1 I1Cent= 0 FoldK=F
 FoFJK:  IHMeth= 1 ICntrl=     0 DoSepK=T KAlg= 1 I1Cent= 0 FoldK=F
          IDoAtm=111111
          Differentiating once with respect to electric field.
                with respect to dipole field.
          Differentiating once with respect to nuclear coordinates.
          There are     1 degrees of freedom in the 1st order CPHF.  IDoFFX=0.
 FoFJK:  IHMeth= 1 ICntrl=     0 DoSepK=T KAlg= 1 I1Cent= 0 FoldK=F
 LinEq1:  Iter=  0 NonCon=     1 RMS=2.33D-02 Max=5.25D-01
 AX will form     1 AO Fock derivatives at one time.
 FoFJK:  IHMeth= 1 ICntrl=     0 DoSepK=T KAlg= 1 I1Cent= 0 FoldK=F
 LinEq1:  Iter=  1 NonCon=     1 RMS=5.48D-03 Max=7.03D-02
 FoFJK:  IHMeth= 1 ICntrl=     0 DoSepK=T KAlg= 1 I1Cent= 0 FoldK=F
 LinEq1:  Iter=  2 NonCon=     1 RMS=2.79D-03 Max=4.48D-02
 FoFJK:  IHMeth= 1 ICntrl=     0 DoSepK=T KAlg= 1 I1Cent= 0 FoldK=F
 LinEq1:  Iter=  3 NonCon=     1 RMS=1.15D-03 Max=1.59D-02
 FoFJK:  IHMeth= 1 ICntrl=     0 DoSepK=T KAlg= 1 I1Cent= 0 FoldK=F
 LinEq1:  Iter=  4 NonCon=     1 RMS=4.19D-04 Max=5.56D-03
 FoFJK:  IHMeth= 1 ICntrl=     0 DoSepK=T KAlg= 1 I1Cent= 0 FoldK=F
 LinEq1:  Iter=  5 NonCon=     1 RMS=1.51D-04 Max=2.49D-03
 FoFJK:  IHMeth= 1 ICntrl=     0 DoSepK=T KAlg= 1 I1Cent= 0 FoldK=F
 LinEq1:  Iter=  6 NonCon=     1 RMS=4.37D-05 Max=6.42D-04
 FoFJK:  IHMeth= 1 ICntrl=     0 DoSepK=T KAlg= 1 I1Cent= 0 FoldK=F
 LinEq1:  Iter=  7 NonCon=     1 RMS=1.01D-05 Max=8.49D-05
 FoFJK:  IHMeth= 1 ICntrl=     0 DoSepK=T KAlg= 1 I1Cent= 0 FoldK=F
 LinEq1:  Iter=  8 NonCon=     1 RMS=1.90D-06 Max=2.90D-05
 FoFJK:  IHMeth= 1 ICntrl=     0 DoSepK=T KAlg= 1 I1Cent= 0 FoldK=F
 LinEq1:  Iter=  9 NonCon=     1 RMS=3.09D-07 Max=2.75D-06
 FoFJK:  IHMeth= 1 ICntrl=     0 DoSepK=T KAlg= 1 I1Cent= 0 FoldK=F
 LinEq1:  Iter= 10 NonCon=     1 RMS=5.19D-08 Max=5.97D-07
 FoFJK:  IHMeth= 1 ICntrl=     0 DoSepK=T KAlg= 1 I1Cent= 0 FoldK=F
 LinEq1:  Iter= 11 NonCon=     1 RMS=9.58D-09 Max=9.44D-08
 FoFJK:  IHMeth= 1 ICntrl=     0 DoSepK=T KAlg= 1 I1Cent= 0 FoldK=F
 LinEq1:  Iter= 12 NonCon=     1 RMS=1.44D-09 Max=1.37D-08
 FoFJK:  IHMeth= 1 ICntrl=     0 DoSepK=T KAlg= 1 I1Cent= 0 FoldK=F
 LinEq1:  Iter= 13 NonCon=     1 RMS=2.15D-10 Max=1.75D-09
 FoFJK:  IHMeth= 1 ICntrl=     0 DoSepK=T KAlg= 1 I1Cent= 0 FoldK=F
 LinEq1:  Iter= 14 NonCon=     0 RMS=4.26D-11 Max=4.69D-10
 Linear equations converged to 1.000D-10 1.000D-09 after    14 iterations.
 FoFJK:  IHMeth= 1 ICntrl=     0 DoSepK=T KAlg= 1 I1Cent= 0 FoldK=F
 End of Minotr Frequency-dependent properties file   721 does not exist.
 End of Minotr Frequency-dependent properties file   722 does not exist.

 **********************************************************************

            Population analysis using the SCF density.

 **********************************************************************

 Alpha  occ. eigenvalues --  -19.17924 -14.42701 -10.35831  -1.13224  -1.00388
 Alpha  occ. eigenvalues --   -0.71233  -0.64112  -0.56300  -0.49563  -0.49086
 Alpha  occ. eigenvalues --   -0.35291  -0.33707
 Alpha virt. eigenvalues --   -0.00005   0.02006   0.03480   0.04953   0.06515
 Alpha virt. eigenvalues --    0.07640   0.08118   0.09491   0.10447   0.11595
 Alpha virt. eigenvalues --    0.12495   0.13963   0.16981   0.17764   0.18601
 Alpha virt. eigenvalues --    0.21226   0.22332   0.22729   0.23214   0.25920
 Alpha virt. eigenvalues --    0.27687   0.28060   0.30746   0.31517   0.32384
 Alpha virt. eigenvalues --    0.33187   0.33883   0.35215   0.37087   0.40168
 Alpha virt. eigenvalues --    0.40950   0.41789   0.43497   0.44232   0.45964
 Alpha virt. eigenvalues --    0.52053   0.53042   0.54258   0.54989   0.57970
 Alpha virt. eigenvalues --    0.58156   0.63797   0.67983   0.72296   0.73943
 Alpha virt. eigenvalues --    0.74289   0.74699   0.76184   0.76839   0.79812
 Alpha virt. eigenvalues --    0.80484   0.81938   0.84866   0.86093   0.86687
 Alpha virt. eigenvalues --    0.88071   0.90132   0.91392   0.93572   0.95728
 Alpha virt. eigenvalues --    0.96065   0.98019   0.98694   1.00539   1.02777
 Alpha virt. eigenvalues --    1.03158   1.04524   1.07354   1.10979   1.12788
 Alpha virt. eigenvalues --    1.13605   1.17332   1.20036   1.22905   1.25719
 Alpha virt. eigenvalues --    1.26922   1.30576   1.32049   1.33244   1.36200
 Alpha virt. eigenvalues --    1.38958   1.42411   1.48043   1.49035   1.55336
 Alpha virt. eigenvalues --    1.58411   1.58826   1.61648   1.72216   1.72532
 Alpha virt. eigenvalues --    1.80003   1.84416   1.85064   1.85927   1.85945
 Alpha virt. eigenvalues --    1.91192   2.00289   2.01513   2.09392   2.11343
 Alpha virt. eigenvalues --    2.15917   2.18424   2.21346   2.23273   2.25490
 Alpha virt. eigenvalues --    2.28450   2.30562   2.32808   2.34298   2.38443
 Alpha virt. eigenvalues --    2.44198   2.44564   2.46979   2.56902   2.58657
 Alpha virt. eigenvalues --    2.62565   2.68792   2.79066   2.87291   2.90225
 Alpha virt. eigenvalues --    2.96457   3.03769   3.13225   3.21544   3.31242
 Alpha virt. eigenvalues --    3.32365   3.39315   3.40770   3.49257   3.52914
 Alpha virt. eigenvalues --    3.64749   3.69076   3.71802   3.75072   3.83915
 Alpha virt. eigenvalues --    3.85099   3.85312   3.94159   3.95730   4.04801
 Alpha virt. eigenvalues --    4.05173   4.09451   4.12446   4.16410   4.18569
 Alpha virt. eigenvalues --    4.20169   4.26923   4.40791   4.40801   4.45136
 Alpha virt. eigenvalues --    4.46325   4.52979   4.60466   4.63164   4.65344
 Alpha virt. eigenvalues --    4.73343   4.82096   4.83455   4.92287   4.93270
 Alpha virt. eigenvalues --    4.97257   5.08506   5.15185   5.18172   5.21692
 Alpha virt. eigenvalues --    5.29065   5.30346   5.44637   5.46150   5.69398
 Alpha virt. eigenvalues --    5.74975   5.83615   5.84918   5.89119   5.98401
 Alpha virt. eigenvalues --    6.14691   6.26116   6.31029   6.45026   6.57264
 Alpha virt. eigenvalues --    6.63277   6.70029   6.77624   6.84429   6.88343
 Alpha virt. eigenvalues --    6.91662   7.14342   7.15946   7.22428   7.34889
 Alpha virt. eigenvalues --    7.42090   7.62451  14.97345  16.07609  17.23145
          Condensed to atoms (all electrons):
              1          2          3          4          5          6
     1  C    4.962220   0.380449   0.466313  -0.035604  -0.041046   0.278123
     2  N    0.380449   6.116339  -0.123806   0.397100   0.434251  -0.053947
     3  O    0.466313  -0.123806   8.227042   0.008232   0.000548  -0.058484
     4  H   -0.035604   0.397100   0.008232   0.579828  -0.079412   0.007094
     5  H   -0.041046   0.434251   0.000548  -0.079412   0.600795   0.000666
     6  H    0.278123  -0.053947  -0.058484   0.007094   0.000666   0.352825
 Mulliken atomic charges:
              1
     1  C   -0.010455
     2  N   -0.150385
     3  O   -0.519844
     4  H    0.122762
     5  H    0.084198
     6  H    0.473723
 Sum of Mulliken atomic charges =   0.00000
 Mulliken charges with hydrogens summed into heavy atoms:
              1
     1  C    0.463268
     2  N    0.056575
     3  O   -0.519844
 Sum of Mulliken charges with hydrogens summed into heavy atoms =   0.00000
 Electronic spatial extent (au):  <R**2>=            146.0439
 Charge=              0.0000 electrons
 Dipole moment (field-independent basis, Debye):
    X=              3.8883    Y=              0.9498    Z=              0.0007  Tot=              4.0027
 Quadrupole moment (field-independent basis, Debye-Ang):
   XX=            -18.3928   YY=            -15.5305   ZZ=            -19.1096
   XY=             -1.3008   XZ=              0.0011   YZ=             -0.0001
 Traceless Quadrupole moment (field-independent basis, Debye-Ang):
   XX=             -0.7152   YY=              2.1471   ZZ=             -1.4320
   XY=             -1.3008   XZ=              0.0011   YZ=             -0.0001
 Octapole moment (field-independent basis, Debye-Ang**2):
  XXX=             12.8125  YYY=             -1.6747  ZZZ=              0.0003  XYY=              2.9185
  XXY=              0.9816  XXZ=              0.0023  XZZ=             -1.4350  YZZ=             -0.1751
  YYZ=              0.0005  XYZ=              0.0000
 Hexadecapole moment (field-independent basis, Debye-Ang**3):
 XXXX=           -113.5001 YYYY=            -35.3574 ZZZZ=            -19.1475 XXXY=              2.4621
 XXXZ=              0.0027 YYYX=             -3.9898 YYYZ=             -0.0005 ZZZX=             -0.0009
 ZZZY=             -0.0001 XXYY=            -23.9469 XXZZ=            -25.8580 YYZZ=            -10.2305
 XXYZ=              0.0002 YYXZ=              0.0003 ZZXY=              0.1432
 N-N= 7.155173417988D+01 E-N=-5.414719583514D+02  KE= 1.689682399013D+02
 Calling FoFJK, ICntrl=      5127 FMM=F ISym2X=0 I1Cent= 0 IOpClX= 0 NMat=1 NMatS=1 NMatT=0.
 FoFJK:  IHMeth= 1 ICntrl=  5127 DoSepK=T KAlg= 1 I1Cent= 0 FoldK=F
 -------------------------------------------------------------------
 Center     Atomic                   Forces (Hartrees/Bohr)
 Number     Number              X              Y              Z
 -------------------------------------------------------------------
      1        6           0.106455587    0.121641698    0.000008719
      2        7           0.030872448   -0.034511934   -0.000014019
      3        8          -0.124143426   -0.081822562   -0.000003341
      4        1           0.003543564    0.004260460    0.000004762
      5        1          -0.004807463   -0.001907890    0.000004472
      6        1          -0.011920710   -0.007659771   -0.000000592
 -------------------------------------------------------------------
 Cartesian Forces:  Max     0.124143426 RMS     0.053040045

 GradGradGradGradGradGradGradGradGradGradGradGradGradGradGradGradGradGrad
 Berny optimization.
 Search for a local minimum.
 Step number   1 out of a maximum of    2
 All quantities printed in internal units (Hartrees-Bohrs-Radians)
 Second derivative matrix not updated -- first step.
 The second derivative matrix:
                          X1        Y1        Z1        X2        Y2
           X1           1.35123
           Y1           0.25601   0.92018
           Z1           0.00001   0.00002   0.14089
           X2          -0.48446   0.13259   0.00002   0.97597
           Y2           0.14067  -0.24270  -0.00001  -0.02514   0.90921
           Z2           0.00000  -0.00001  -0.08165   0.00011   0.00000
           X3          -0.76876  -0.39831  -0.00002  -0.00904  -0.02060
           Y3          -0.40519  -0.37082  -0.00001   0.01469   0.03348
           Z3          -0.00002  -0.00001  -0.04562   0.00000   0.00001
           X4           0.01318   0.03003  -0.00001  -0.13073   0.04270
           Y4           0.00128   0.00293   0.00000   0.03276  -0.46297
           Z4           0.00000   0.00000   0.01710  -0.00002   0.00008
           X5          -0.00762  -0.01737  -0.00001  -0.36383  -0.16517
           Y5           0.01088   0.02478   0.00001  -0.15472  -0.23659
           Z5           0.00000   0.00000   0.01441  -0.00011  -0.00006
           X6          -0.10357  -0.00295   0.00000   0.01208   0.02753
           Y6          -0.00365  -0.33437   0.00000  -0.00019  -0.00044
           Z6           0.00000   0.00000  -0.04514   0.00000   0.00000
                          Z2        X3        Y3        Z3        X4
           Z2           0.17094
           X3           0.00000   0.76014
           Y3           0.00000   0.41920   0.33688
           Z3           0.01405   0.00002   0.00001   0.02191
           X4          -0.00002   0.00000   0.00000   0.00000   0.09217
           Y4           0.00006   0.00000   0.00000   0.00000  -0.03652
           Z4          -0.05881   0.00000   0.00000  -0.00749   0.00002
           X5          -0.00009   0.00000   0.00000   0.00000   0.02538
           Y5          -0.00005   0.00000   0.00000   0.00000  -0.03622
           Z5          -0.05738   0.00000   0.00000   0.00767   0.00001
           X6           0.00000   0.01766  -0.02870   0.00000   0.00000
           Y6           0.00000  -0.00028   0.00045   0.00000   0.00000
           Z6           0.01284   0.00000   0.00000   0.00948   0.00000
                          Y4        Z4        X5        Y5        Z5
           Y4           0.46357
           Z4          -0.00006   0.02939
           X5           0.00247   0.00001   0.34607
           Y5          -0.00353  -0.00001   0.18006   0.21533
           Z5           0.00000   0.01250   0.00009   0.00006   0.03028
           X6           0.00000   0.00000   0.00000   0.00000   0.00000
           Y6           0.00000   0.00000   0.00000   0.00000   0.00000
           Z6           0.00000   0.00731   0.00000   0.00000  -0.00748
                          X6        Y6        Z6
           X6           0.07383
           Y6           0.00412   0.33436
           Z6           0.00000   0.00000   0.02299
     Eigenvalues ---    0.02811   0.04753   0.09098   0.09254   0.15211
     Eigenvalues ---    0.19966   0.24255   0.37149   0.68388   1.15191
     Eigenvalues ---    1.44453   2.35348
 Angle between quadratic step and forces=  54.53 degrees.
 Linear search not attempted -- first point.
 TrRot=  0.000713  0.001412 -0.000008 -0.000572  0.000005 -0.000572
 Variable       Old X    -DE/DX   Delta X   Delta X   Delta X     New X
                                 (Linear)    (Quad)   (Total)
    X1       -0.30398   0.10646   0.00000   0.02622   0.02787  -0.27610
    Y1        0.72993   0.12164   0.00000   0.09114   0.09287   0.82279
    Z1       -0.00001   0.00001   0.00000   0.00000  -0.00001  -0.00001
    X2        2.03555   0.03087   0.00000   0.05164   0.05197   2.08752
    Y2       -0.29682  -0.03451   0.00000  -0.03343  -0.03440  -0.33123
    Z2       -0.00003  -0.00001   0.00000  -0.00005  -0.00007  -0.00010
    X3       -2.24511  -0.12414   0.00000  -0.06406  -0.06393  -2.30904
    Y3       -0.46458  -0.08182   0.00000  -0.04067  -0.03661  -0.50119
    Z3       -0.00005   0.00000   0.00000   0.00000   0.00001  -0.00004
    X4        2.21977   0.00354   0.00000   0.04186   0.04003   2.25980
    Y4       -2.18823   0.00426   0.00000  -0.02600  -0.02718  -2.21540
    Z4        0.00024   0.00000   0.00000   0.00005   0.00003   0.00027
    X5        3.58717  -0.00481   0.00000   0.05989   0.06144   3.64861
    Y5        0.79059  -0.00191   0.00000  -0.06378  -0.06654   0.72405
    Z5        0.00044   0.00000   0.00000   0.00006   0.00003   0.00047
    X6       -0.27103  -0.01192   0.00000  -0.12139  -0.11738  -0.38842
    Y6        2.81249  -0.00766   0.00000   0.07000   0.07186   2.88435
    Z6        0.00002   0.00000   0.00000   0.00000   0.00000   0.00001
         Item               Value     Threshold  Converged?
 Maximum Force            0.124143     0.000450     NO 
 RMS     Force            0.053040     0.000300     NO 
 Maximum Displacement     0.117384     0.001800     NO 
 RMS     Displacement     0.051747     0.001200     NO 
 Predicted change in Energy=-1.434385D-02
 GradGradGradGradGradGradGradGradGradGradGradGradGradGradGradGradGradGrad

 1\1\GINC-CLODOMIRA\Force\RTD-CAM-B3LYP-FC\Aug-CC-pVTZ\C1H3N1O1\DIEGOA\
 22-Oct-2019\0\\# cam-b3lyp/aug-cc-pvtz force nosymm td(root=1,nstates=
 20)\\Title\\0,1\C,-0.160857,0.386261,-0.000004\N,1.077168,-0.157071,-0
 .000017\O,-1.188063,-0.245846,-0.000027\H,1.17465,-1.157961,0.000127\H
 ,1.898249,0.418362,0.000231\H,-0.143425,1.488304,0.000008\\Version=EM6
 4L-G09RevA.01\HF=-169.8977894\RMSD=3.076e-09\RMSF=5.304e-02\Dipole=0.9
 064976,0.1164778,0.0002277\PG=C01 [X(C1H3N1O1)]\\@


 HE THAT IS UNAWARE OF HIS IGNORANCE WILL BE MISLED BY HIS KNOWLEDGE.

                                        -- WHATLEY
 Job cpu time:  0 days  1 hours  5 minutes 58.9 seconds.
 File lengths (MBytes):  RWF=    108 Int=      0 D2E=      0 Chk=     35 Scr=      1
 Normal termination of Gaussian 09 at Tue Oct 22 21:53:21 2019.
