 Entering Gaussian System, Link 0=g09
 Input=td3-opt.com
 Output=td3-opt.log
 Initial command:
 /home/diegoa/progs/g09/l1.exe /home/diegoa/g09scratch/Gau-6207.inp -scrdir=/home/diegoa/g09scratch/
 Default is to use a total of   4 processors:
                                4 via shared-memory
                                1 via Linda
 Entering Link 1 = /home/diegoa/progs/g09/l1.exe PID=      6209.
  
 Copyright (c) 1988,1990,1992,1993,1995,1998,2003,2009, Gaussian, Inc.
                  All Rights Reserved.
  
 This is part of the Gaussian(R) 09 program.  It is based on
 the Gaussian(R) 03 system (copyright 2003, Gaussian, Inc.),
 the Gaussian(R) 98 system (copyright 1998, Gaussian, Inc.),
 the Gaussian(R) 94 system (copyright 1995, Gaussian, Inc.),
 the Gaussian 92(TM) system (copyright 1992, Gaussian, Inc.),
 the Gaussian 90(TM) system (copyright 1990, Gaussian, Inc.),
 the Gaussian 88(TM) system (copyright 1988, Gaussian, Inc.),
 the Gaussian 86(TM) system (copyright 1986, Carnegie Mellon
 University), and the Gaussian 82(TM) system (copyright 1983,
 Carnegie Mellon University). Gaussian is a federally registered
 trademark of Gaussian, Inc.
  
 This software contains proprietary and confidential information,
 including trade secrets, belonging to Gaussian, Inc.
  
 This software is provided under written license and may be
 used, copied, transmitted, or stored only in accord with that
 written license.
  
 The following legend is applicable only to US Government
 contracts under FAR:
  
                    RESTRICTED RIGHTS LEGEND
  
 Use, reproduction and disclosure by the US Government is
 subject to restrictions as set forth in subparagraphs (a)
 and (c) of the Commercial Computer Software - Restricted
 Rights clause in FAR 52.227-19.
  
 Gaussian, Inc.
 340 Quinnipiac St., Bldg. 40, Wallingford CT 06492
  
  
 ---------------------------------------------------------------
 Warning -- This program may not be used in any manner that
 competes with the business of Gaussian, Inc. or will provide
 assistance to any competitor of Gaussian, Inc.  The licensee
 of this program is prohibited from giving any competitor of
 Gaussian, Inc. access to this program.  By using this program,
 the user acknowledges that Gaussian, Inc. is engaged in the
 business of creating and licensing software in the field of
 computational chemistry and represents and warrants to the
 licensee that it is not a competitor of Gaussian, Inc. and that
 it will not use this program in any manner prohibited above.
 ---------------------------------------------------------------
  

 Cite this work as:
 Gaussian 09, Revision A.01,
 M. J. Frisch, G. W. Trucks, H. B. Schlegel, G. E. Scuseria, 
 M. A. Robb, J. R. Cheeseman, G. Scalmani, V. Barone, B. Mennucci, 
 G. A. Petersson, H. Nakatsuji, M. Caricato, X. Li, H. P. Hratchian, 
 A. F. Izmaylov, J. Bloino, G. Zheng, J. L. Sonnenberg, M. Hada, 
 M. Ehara, K. Toyota, R. Fukuda, J. Hasegawa, M. Ishida, T. Nakajima, 
 Y. Honda, O. Kitao, H. Nakai, T. Vreven, J. A. Montgomery, Jr., 
 J. E. Peralta, F. Ogliaro, M. Bearpark, J. J. Heyd, E. Brothers, 
 K. N. Kudin, V. N. Staroverov, R. Kobayashi, J. Normand, 
 K. Raghavachari, A. Rendell, J. C. Burant, S. S. Iyengar, J. Tomasi, 
 M. Cossi, N. Rega, J. M. Millam, M. Klene, J. E. Knox, J. B. Cross, 
 V. Bakken, C. Adamo, J. Jaramillo, R. Gomperts, R. E. Stratmann, 
 O. Yazyev, A. J. Austin, R. Cammi, C. Pomelli, J. W. Ochterski, 
 R. L. Martin, K. Morokuma, V. G. Zakrzewski, G. A. Voth, 
 P. Salvador, J. J. Dannenberg, S. Dapprich, A. D. Daniels, 
 O. Farkas, J. B. Foresman, J. V. Ortiz, J. Cioslowski, 
 and D. J. Fox, Gaussian, Inc., Wallingford CT, 2009.
 
 ******************************************
 Gaussian 09:  EM64L-G09RevA.01  8-May-2009
                27-Oct-2019 
 ******************************************
 %chk=td3-opt.chk
 %NProcShared=4
 Will use up to    4 processors via shared memory.
 Default route:  MP2=Direct MaxDisk=1000GB DenFit
 --------------------------------------------------------
 # cam-b3lyp/aug-cc-pvtz opt nosymm td(root=3,nstates=20)
 --------------------------------------------------------
 1/14=-1,18=20,19=15,26=3,38=1/1,3;
 2/9=110,12=2,15=1,17=6,18=5,40=1/2;
 3/5=16,6=1,7=10,11=2,16=1,25=1,30=1,71=1,74=-40,82=47/1,2,8,3;
 4//1;
 5/5=2,38=5/2;
 8/6=1,10=1,107=3,108=20/1;
 9/8=3,15=2,41=20,42=1/14;
 10/5=4,31=1/2;
 6/7=2,8=2,9=2,10=2/1;
 7/12=6,13=5,14=3,30=1/1,2,3,16;
 1/14=-1,18=20,19=15/3(2);
 2/9=110,15=1/2;
 99//99;
 2/9=110,15=1/2;
 3/5=16,6=1,7=10,11=2,16=1,25=1,30=1,71=1,74=-40,82=47/1,2,8,3;
 4/5=5,16=3/1;
 5/5=2,38=5/2;
 8/6=1,10=1,107=3,108=20/1;
 9/8=3,15=2,41=20,42=1,49=4/14;
 10/5=4,31=1/2;
 7/12=6,13=5,14=3,30=1/1,2,3,16;
 1/14=-1,18=20,19=15/3(-8);
 2/9=110,15=1/2;
 6/7=2,8=2,9=2,10=2/1;
 99//99;
 -----
 Title
 -----
 Symbolic Z-matrix:
 Charge =  0 Multiplicity = 1
 6                    -0.10503   0.36158   0.00004 
 7                     1.06716  -0.17548   0.00011 
 8                    -1.23662  -0.18664  -0.00007 
 1                     1.20592  -1.18341   0.0001 
 1                     1.90041   0.45353   0.00015 
 1                    -0.17411   1.46247  -0.00001 
 

 GradGradGradGradGradGradGradGradGradGradGradGradGradGradGradGradGradGrad
 Berny optimization.
 Initialization pass.
                           ----------------------------
                           !    Initial Parameters    !
                           ! (Angstroms and Degrees)  !
 --------------------------                            --------------------------
 ! Name  Definition              Value          Derivative Info.                !
 --------------------------------------------------------------------------------
 ! R1    R(1,2)                  1.2894         estimate D2E/DX2                !
 ! R2    R(1,3)                  1.2574         estimate D2E/DX2                !
 ! R3    R(1,6)                  1.1031         estimate D2E/DX2                !
 ! R4    R(2,4)                  1.0174         estimate D2E/DX2                !
 ! R5    R(2,5)                  1.044          estimate D2E/DX2                !
 ! A1    A(2,1,3)              129.5355         estimate D2E/DX2                !
 ! A2    A(2,1,6)              118.2062         estimate D2E/DX2                !
 ! A3    A(3,1,6)              112.2584         estimate D2E/DX2                !
 ! A4    A(1,2,4)              122.4544         estimate D2E/DX2                !
 ! A5    A(1,2,5)              118.3356         estimate D2E/DX2                !
 ! A6    A(4,2,5)              119.21           estimate D2E/DX2                !
 ! D1    D(3,1,2,4)             -0.0012         estimate D2E/DX2                !
 ! D2    D(3,1,2,5)            179.9959         estimate D2E/DX2                !
 ! D3    D(6,1,2,4)           -179.9954         estimate D2E/DX2                !
 ! D4    D(6,1,2,5)              0.0018         estimate D2E/DX2                !
 --------------------------------------------------------------------------------
 Trust Radius=3.00D-01 FncErr=1.00D-07 GrdErr=1.00D-06
 Number of steps in this run=  25 maximum allowed number of steps= 100.
 GradGradGradGradGradGradGradGradGradGradGradGradGradGradGradGradGradGrad

                          Input orientation:                          
 ---------------------------------------------------------------------
 Center     Atomic      Atomic             Coordinates (Angstroms)
 Number     Number       Type             X           Y           Z
 ---------------------------------------------------------------------
      1          6           0       -0.105033    0.361581    0.000044
      2          7           0        1.067158   -0.175481    0.000114
      3          8           0       -1.236620   -0.186637   -0.000073
      4          1           0        1.205920   -1.183412    0.000097
      5          1           0        1.900406    0.453526    0.000145
      6          1           0       -0.174109    1.462471   -0.000010
 ---------------------------------------------------------------------
                    Distance matrix (angstroms):
                    1          2          3          4          5
     1  C    0.000000
     2  N    1.289367   0.000000
     3  O    1.257391   2.303805   0.000000
     4  H    2.026228   1.017438   2.638098   0.000000
     5  H    2.007546   1.044008   3.201678   1.778167   0.000000
     6  H    1.103055   2.055147   1.961756   2.984154   2.306856
                    6
     6  H    0.000000
 Symmetry turned off by external request.
 Stoichiometry    CH3NO
 Framework group  C1[X(CH3NO)]
 Deg. of freedom    12
 Full point group                 C1      NOp   1
 Rotational constants (GHZ):     79.8751137     11.1175968      9.7592357
 Standard basis: Aug-CC-pVTZ (5D, 7F)
 Integral buffers will be    131072 words long.
 Raffenetti 2 integral format.
 Two-electron integral symmetry is turned off.
   207 basis functions,   297 primitive gaussians,   240 cartesian basis functions
    12 alpha electrons       12 beta electrons
       nuclear repulsion energy        71.1089895887 Hartrees.
 NAtoms=    6 NActive=    6 NUniq=    6 SFac= 7.50D-01 NAtFMM=   80 NAOKFM=F Big=F
 Standard density basis: Auto (5D, 7F)
   591 Density fitting functions
 One-electron integrals computed using PRISM.
 NBasis=   207 RedAO= T  NBF=   207
 NBsUse=   207 1.00D-06 NBFU=   207
 Harris functional with IExCor=20419 diagonalized for initial guess.
 ExpMin= 2.53D-02 ExpMax= 1.53D+04 ExpMxC= 5.22D+02 IAcc=3 IRadAn=         0 AccDes= 0.00D+00
 HarFok:  IExCor=20419 AccDes= 0.00D+00 IRadAn=         0 IDoV= 1
 ScaDFX=  1.000000  1.000000  1.000000  1.000000
 FoFCou: FMM=F IPFlag=           0 FMFlag=      100000 FMFlg1=           0
         NFxFlg=           0 DoJE=T BraDBF=F KetDBF=T FulRan=T
         Omega=  0.000000  0.000000  1.000000  0.000000  0.000000 ICntrl=     500 IOpCl=  0
         NMat0=    1 NMatS0=    1 NMatT0=    0 NMatD0=    1 NMtDS0=    0 NMtDT0=    0
         I1Cent=           4 NGrid=           0.
 Symmetry not used in FoFCou.
 Requested convergence on RMS density matrix=1.00D-08 within 128 cycles.
 Requested convergence on MAX density matrix=1.00D-06.
 Requested convergence on             energy=1.00D-06.
 No special actions if energy rises.
 FoFJK:  IHMeth= 1 ICntrl=     0 DoSepK=T KAlg= 1 I1Cent= 0 FoldK=F
 FoFJK:  IHMeth= 1 ICntrl=     0 DoSepK=T KAlg= 1 I1Cent= 0 FoldK=F
 FoFJK:  IHMeth= 1 ICntrl=     0 DoSepK=T KAlg= 1 I1Cent= 0 FoldK=F
 FoFJK:  IHMeth= 1 ICntrl=     0 DoSepK=T KAlg= 1 I1Cent= 0 FoldK=F
 FoFJK:  IHMeth= 1 ICntrl=     0 DoSepK=T KAlg= 1 I1Cent= 0 FoldK=F
 FoFJK:  IHMeth= 1 ICntrl=     0 DoSepK=T KAlg= 1 I1Cent= 0 FoldK=F
 FoFJK:  IHMeth= 1 ICntrl=     0 DoSepK=T KAlg= 1 I1Cent= 0 FoldK=F
 FoFJK:  IHMeth= 1 ICntrl=     0 DoSepK=T KAlg= 1 I1Cent= 0 FoldK=F
 FoFJK:  IHMeth= 1 ICntrl=     0 DoSepK=T KAlg= 1 I1Cent= 0 FoldK=F
 FoFJK:  IHMeth= 1 ICntrl=     0 DoSepK=T KAlg= 1 I1Cent= 0 FoldK=F
 FoFJK:  IHMeth= 1 ICntrl=     0 DoSepK=T KAlg= 1 I1Cent= 0 FoldK=F
 SCF Done:  E(RCAM-B3LYP) =  -169.886953090     A.U. after   11 cycles
             Convg  =    0.3667D-08             -V/T =  2.0061
 ExpMin= 2.53D-02 ExpMax= 1.53D+04 ExpMxC= 5.22D+02 IAcc=3 IRadAn=         5 AccDes= 0.00D+00
 HarFok:  IExCor=  205 AccDes= 0.00D+00 IRadAn=         5 IDoV=-2
 ScaDFX=  1.000000  1.000000  1.000000  1.000000
 Range of M.O.s used for correlation:     4   207
 NBasis=   207 NAE=    12 NBE=    12 NFC=     3 NFV=     0
 NROrb=    204 NOA=     9 NOB=     9 NVA=   195 NVB=   195

 **** Warning!!: The largest alpha MO coefficient is  0.38793443D+02

 Would need an additional   658600000 words for in-memory AO integral storage.
    80 initial guesses have been made.
 Convergence on wavefunction:    0.000001000000000
 Iteration     1 Dimension    80 NMult    80
 CISAX will form    80 AO SS matrices at one time.
 FoFJK:  IHMeth= 1 ICntrl=     0 DoSepK=T KAlg= 1 I1Cent= 0 FoldK=F
 FoFJK:  IHMeth= 1 ICntrl=     0 DoSepK=T KAlg= 1 I1Cent= 0 FoldK=F
 New state      1 was old state      6
 New state      2 was old state      1
 New state      4 was old state      2
 New state      5 was old state      4
 New state      6 was old state      5
 New state      9 was old state     12
 New state     10 was old state     11
 New state     11 was old state     10
 New state     12 was old state     13
 New state     13 was old state     16
 New state     14 was old state      9
 New state     16 was old state     14
 Iteration     2 Dimension   120 NMult   120
 FoFJK:  IHMeth= 1 ICntrl=     0 DoSepK=T KAlg= 1 I1Cent= 0 FoldK=F
 FoFJK:  IHMeth= 1 ICntrl=     0 DoSepK=T KAlg= 1 I1Cent= 0 FoldK=F
 New state      8 was old state      9
 New state      9 was old state      8
 New state     13 was old state     14
 New state     14 was old state     13
 New state     17 was old state     19
 New state     18 was old state     17
 New state     19 was old state     18
 Iteration     3 Dimension   160 NMult   160
 FoFJK:  IHMeth= 1 ICntrl=     0 DoSepK=T KAlg= 1 I1Cent= 0 FoldK=F
 FoFJK:  IHMeth= 1 ICntrl=     0 DoSepK=T KAlg= 1 I1Cent= 0 FoldK=F
 Iteration     4 Dimension   200 NMult   200
 FoFJK:  IHMeth= 1 ICntrl=     0 DoSepK=T KAlg= 1 I1Cent= 0 FoldK=F
 FoFJK:  IHMeth= 1 ICntrl=     0 DoSepK=T KAlg= 1 I1Cent= 0 FoldK=F
 Iteration     5 Dimension   240 NMult   240
 FoFJK:  IHMeth= 1 ICntrl=     0 DoSepK=T KAlg= 1 I1Cent= 0 FoldK=F
 FoFJK:  IHMeth= 1 ICntrl=     0 DoSepK=T KAlg= 1 I1Cent= 0 FoldK=F
 Iteration     6 Dimension   280 NMult   280
 FoFJK:  IHMeth= 1 ICntrl=     0 DoSepK=T KAlg= 1 I1Cent= 0 FoldK=F
 FoFJK:  IHMeth= 1 ICntrl=     0 DoSepK=T KAlg= 1 I1Cent= 0 FoldK=F
 Iteration     7 Dimension   312 NMult   312
 FoFJK:  IHMeth= 1 ICntrl=     0 DoSepK=T KAlg= 1 I1Cent= 0 FoldK=F
 FoFJK:  IHMeth= 1 ICntrl=     0 DoSepK=T KAlg= 1 I1Cent= 0 FoldK=F
 Davidson failed to converge within maximum sub-space dimensions.
  Restart with updated initial guess:
 Iteration     1 Dimension    52 NMult   364
 FoFJK:  IHMeth= 1 ICntrl=     0 DoSepK=T KAlg= 1 I1Cent= 0 FoldK=F
 FoFJK:  IHMeth= 1 ICntrl=     0 DoSepK=T KAlg= 1 I1Cent= 0 FoldK=F
 Iteration     2 Dimension    92 NMult   404
 FoFJK:  IHMeth= 1 ICntrl=     0 DoSepK=T KAlg= 1 I1Cent= 0 FoldK=F
 FoFJK:  IHMeth= 1 ICntrl=     0 DoSepK=T KAlg= 1 I1Cent= 0 FoldK=F
 ***********************************************************************
 Excited states from <AA,BB:AA,BB> singles matrix:
 ***********************************************************************
 
 Ground to excited state transition electric dipole moments (Au):
       state          X           Y           Z        Dip. S.      Osc.
         1         0.0000      0.0000      0.0640      0.0041      0.0005
         2        -0.2342     -0.0449      0.0000      0.0569      0.0087
         3         0.0001      0.0000     -0.2100      0.0441      0.0071
         4        -0.1163     -0.5896      0.0000      0.3611      0.0603
         5        -0.0079     -0.3690      0.0000      0.1362      0.0243
         6        -0.0001      0.0000      0.0791      0.0063      0.0011
         7         0.0000      0.0000      0.2330      0.0543      0.0102
         8        -1.1662      0.0425     -0.0001      1.3618      0.2581
         9         0.0001      0.0000     -0.2558      0.0654      0.0128
        10        -0.0984     -0.2794      0.0000      0.0877      0.0177
        11         0.2161     -0.0335      0.0000      0.0478      0.0098
        12        -0.2024     -0.0028      0.0000      0.0410      0.0086
        13         0.4712      0.0811      0.0004      0.2286      0.0500
        14         0.0010      0.0002     -0.2080      0.0432      0.0095
        15         0.0000      0.0000      0.1165      0.0136      0.0030
        16         0.1701     -0.2647      0.0000      0.0990      0.0223
        17        -0.1943      0.0230      0.0001      0.0383      0.0087
        18         0.0001      0.0000      0.0913      0.0083      0.0019
        19        -0.0001      0.0000     -0.1112      0.0124      0.0028
        20        -0.0001      0.0000     -0.0376      0.0014      0.0003
 Ground to excited state transition velocity dipole moments (Au):
       state          X           Y           Z        Dip. S.      Osc.
         1         0.0000      0.0000     -0.0135      0.0002      0.0006
         2         0.0540      0.0099      0.0000      0.0030      0.0088
         3         0.0000      0.0000      0.0509      0.0026      0.0071
         4         0.0291      0.1475      0.0000      0.0226      0.0602
         5         0.0020      0.0991      0.0000      0.0098      0.0245
         6         0.0000      0.0000     -0.0215      0.0005      0.0011
         7         0.0000      0.0000     -0.0644      0.0042      0.0098
         8         0.3297     -0.0122      0.0000      0.1089      0.2553
         9         0.0000      0.0000      0.0754      0.0057      0.0129
        10         0.0300      0.0842      0.0000      0.0080      0.0176
        11        -0.0645      0.0108      0.0000      0.0043      0.0093
        12         0.0671      0.0017      0.0000      0.0045      0.0095
        13        -0.1548     -0.0253     -0.0001      0.0246      0.0499
        14        -0.0003     -0.0001      0.0688      0.0047      0.0096
        15         0.0000      0.0000     -0.0396      0.0016      0.0031
        16        -0.0585      0.0889      0.0000      0.0113      0.0224
        17         0.0642     -0.0058      0.0000      0.0042      0.0081
        18         0.0000      0.0000     -0.0293      0.0009      0.0017
        19         0.0000      0.0000      0.0358      0.0013      0.0025
        20         0.0000      0.0000      0.0152      0.0002      0.0004
 Ground to excited state transition magnetic dipole moments (Au):
       state          X           Y           Z
         1        -0.9827     -0.2355     -0.0001
         2        -0.0001      0.0000      0.2052
         3        -0.0109     -0.3873      0.0000
         4         0.0000      0.0000      0.0997
         5         0.0000      0.0000     -0.4168
         6         0.0479      0.0484      0.0000
         7        -0.0678      0.0878      0.0000
         8         0.0001      0.0000     -0.4952
         9         0.0139      0.3982      0.0000
        10         0.0000      0.0000     -0.1924
        11         0.0000      0.0000      0.0033
        12         0.0000      0.0000     -0.4462
        13         0.0001     -0.0008     -0.0633
        14        -0.0645      0.4195     -0.0001
        15         0.0805      0.3410      0.0000
        16         0.0000      0.0000      0.1386
        17         0.0001     -0.0001     -0.2458
        18        -0.0816     -0.0779      0.0001
        19        -0.2114      0.0060     -0.0001
        20        -0.8250      0.9533     -0.0001
 <0|del|b> * <b|rxdel|0> + <0|del|b> * <b|delr+rdel|0>
 Rotatory Strengths (R) in cgs (10**-40 erg-esu-cm/Gauss)
       state          XX          YY          ZZ    R(velocity)
         1         0.0002      0.0034     -0.0012      0.0008
 Total R(velocity) tensor for State=          1
                 1             2             3 
      1   0.198991D-03 -0.279412D-03  0.000000D+00
      2   0.947359D-02  0.335566D-02  0.000000D+00
      3  -0.205839D+02 -0.559530D+01 -0.120942D-02
         2         0.0019     -0.0061     -0.0065     -0.0035
 Total R(velocity) tensor for State=          2
                 1             2             3 
      1   0.194486D-02  0.401517D-02 -0.311025D+02
      2   0.386448D-02 -0.606928D-02 -0.318171D+02
      3  -0.145735D+01  0.791015D+01 -0.645535D-02
         3         0.0017      0.0010     -0.0002      0.0008
 Total R(velocity) tensor for State=          3
                 1             2             3 
      1   0.165203D-02 -0.118740D-01  0.000000D+00
      2  -0.271882D-02  0.101812D-02  0.000000D+00
      3  -0.131989D+01  0.330832D+01 -0.160552D-03
         4         0.0043      0.0007     -0.0012      0.0013
 Total R(velocity) tensor for State=          4
                 1             2             3 
      1   0.432619D-02  0.267256D-03 -0.550960D+02
      2  -0.329521D-02  0.697521D-03 -0.229904D+01
      3   0.246991D+01 -0.487744D+00 -0.123136D-02
         5        -0.0011      0.0007      0.0049      0.0015
 Total R(velocity) tensor for State=          5
                 1             2             3 
      1  -0.110838D-02  0.653533D-03  0.478241D+02
      2  -0.566302D-02  0.718018D-03  0.458652D+02
      3   0.924279D+01 -0.183357D+00  0.486296D-02
         6         0.0006      0.0038     -0.0012      0.0011
 Total R(velocity) tensor for State=          6
                 1             2             3 
      1   0.566309D-03 -0.215019D-02  0.143880D-05
      2   0.156340D-02  0.384856D-02  0.000000D+00
      3  -0.983179D+00  0.473198D+00 -0.115997D-02
         7        -0.0016      0.0004      0.0003     -0.0003
 Total R(velocity) tensor for State=          7
                 1             2             3 
      1  -0.155409D-02  0.233570D-02  0.000000D+00
      2   0.263630D-03  0.420902D-03  0.000000D+00
      3  -0.286269D+01 -0.179807D+01  0.305995D-03
         8        -0.0333      0.0070      0.0349      0.0028
 Total R(velocity) tensor for State=          8
                 1             2             3 
      1  -0.333468D-01 -0.181986D-01  0.321343D+03
      2  -0.220214D-03  0.699214D-02  0.471665D+01
      3   0.162961D+01  0.439365D+02  0.348713D-01
         9         0.0039      0.0001      0.0001      0.0014
 Total R(velocity) tensor for State=          9
                 1             2             3 
      1   0.393724D-02  0.141898D-01  0.179231D-05
      2   0.414857D-03  0.969598D-04  0.000000D+00
      3   0.223736D+01 -0.202206D+02  0.116209D-03
        10         0.0000      0.0013      0.0023      0.0012
 Total R(velocity) tensor for State=         10
                 1             2             3 
      1  -0.268904D-04 -0.408764D-03  0.110138D+02
      2  -0.121624D-02  0.133028D-02 -0.236062D+02
      3   0.347435D+01 -0.123869D+01  0.228941D-02
        11         0.0008     -0.0015     -0.0013     -0.0007
 Total R(velocity) tensor for State=         11
                 1             2             3 
      1   0.836328D-03  0.724031D-03 -0.733036D+01
      2   0.251317D-03 -0.147150D-02 -0.510423D+01
      3   0.163534D+01  0.976004D+01 -0.133530D-02
        12        -0.0069     -0.0028      0.0037     -0.0020
 Total R(velocity) tensor for State=         12
                 1             2             3 
      1  -0.685437D-02 -0.183523D-02  0.408843D+02
      2   0.158943D-02 -0.283879D-02 -0.898561D+01
      3  -0.322134D+00  0.125877D+02  0.368187D-02
        13         0.0345     -0.0290      0.0166      0.0074
 Total R(velocity) tensor for State=         13
                 1             2             3 
      1   0.344770D-01 -0.222208D+00  0.204978D+01
      2   0.273931D-01 -0.290057D-01 -0.246358D+02
      3   0.120769D+01 -0.738040D+01  0.166005D-01
        14        -0.0318      0.0340     -0.0164     -0.0047
 Total R(velocity) tensor for State=         14
                 1             2             3 
      1  -0.318238D-01  0.236634D+00  0.326323D-04
      2  -0.270332D-01  0.339660D-01 -0.975668D-04
      3  -0.294136D+01 -0.398456D+01 -0.163761D-01
        15        -0.0022     -0.0003      0.0004     -0.0007
 Total R(velocity) tensor for State=         15
                 1             2             3 
      1  -0.218184D-02 -0.172460D-02  0.000000D+00
      2   0.101331D-04 -0.251861D-03  0.000000D+00
      3   0.801643D+01  0.148257D+02  0.366884D-03
        16         0.0011     -0.0005     -0.0002      0.0001
 Total R(velocity) tensor for State=         16
                 1             2             3 
      1   0.114827D-02  0.960867D-03  0.541386D+01
      2  -0.156270D-02 -0.547636D-03  0.126735D+02
      3  -0.486862D+01 -0.320354D+01 -0.165522D-03
        17         0.0013      0.0157      0.0027      0.0066
 Total R(velocity) tensor for State=         17
                 1             2             3 
      1   0.129897D-02  0.110390D-02  0.375323D+01
      2  -0.873862D-02  0.156751D-01 -0.318018D+02
      3  -0.874123D+00 -0.964736D+01  0.274312D-02
        18        -0.0003     -0.0035      0.0016     -0.0007
 Total R(velocity) tensor for State=         18
                 1             2             3 
      1  -0.305007D-03  0.517996D-03  0.000000D+00
      2   0.614083D-02 -0.349293D-02 -0.548615D-05
      3  -0.241035D+01 -0.521382D+01  0.162262D-02
        19        -0.0015     -0.0062     -0.0046     -0.0041
 Total R(velocity) tensor for State=         19
                 1             2             3 
      1  -0.146513D-02 -0.121779D-02  0.000000D+00
      2   0.287581D-02 -0.624304D-02 -0.118662D-05
      3   0.856127D+01  0.116048D+01 -0.455260D-02
        20         0.0032     -0.0321     -0.0125     -0.0138
 Total R(velocity) tensor for State=         20
                 1             2             3 
      1   0.316632D-02 -0.301259D-01  0.255010D-05
      2   0.494281D-02 -0.321450D-01  0.000000D+00
      3   0.872214D+01 -0.130840D+02 -0.124810D-01
 1/2[<0|r|b>*<b|rxdel|0> + (<0|rxdel|b>*<b|r|0>)*]
 Rotatory Strengths (R) in cgs (10**-40 erg-esu-cm/Gauss)
       state          XX          YY          ZZ     R(length)     R(au)
         1         0.0018     -0.0039      0.0043      0.0007      0.0000
         2        -0.0124     -0.0011      0.0030     -0.0035      0.0000
         3         0.0004      0.0033     -0.0012      0.0009      0.0000
         4         0.0002      0.0027      0.0009      0.0013      0.0000
         5         0.0002      0.0028      0.0014      0.0015      0.0000
         6         0.0027     -0.0011      0.0017      0.0011      0.0000
         7         0.0012      0.0000     -0.0020     -0.0003      0.0000
         8         0.0515     -0.0014     -0.0415      0.0029      0.0000
         9        -0.0009     -0.0022      0.0073      0.0014      0.0000
        10         0.0024      0.0026     -0.0014      0.0012      0.0000
        11        -0.0020      0.0000      0.0000     -0.0007      0.0000
        12         0.0051      0.0000     -0.0110     -0.0020      0.0000
        13        -0.0404      0.0453      0.0192      0.0080      0.0000
        14         0.0435     -0.0488     -0.0111     -0.0055      0.0000
        15         0.0007     -0.0007     -0.0018     -0.0006      0.0000
        16         0.0014      0.0000     -0.0010      0.0001      0.0000
        17         0.0089      0.0009      0.0108      0.0069      0.0000
        18         0.0043     -0.0005     -0.0064     -0.0009      0.0000
        19        -0.0082      0.0000     -0.0044     -0.0042      0.0000
        20        -0.0467      0.0078     -0.0026     -0.0138      0.0000
  1/2[<0|del|b>*<b|r|0> + (<0|r|b>*<b|del|0>)*] (Au)
       state          X           Y           Z        Dip. S.   Osc.(frdel)
         1         0.0000      0.0000     -0.0009      0.0009      0.0006
         2        -0.0126     -0.0004      0.0000      0.0131      0.0087
         3         0.0000      0.0000     -0.0107      0.0107      0.0071
         4        -0.0034     -0.0870      0.0000      0.0904      0.0603
         5         0.0000     -0.0366      0.0000      0.0366      0.0244
         6         0.0000      0.0000     -0.0017      0.0017      0.0011
         7         0.0000      0.0000     -0.0150      0.0150      0.0100
         8        -0.3845     -0.0005      0.0000      0.3850      0.2567
         9         0.0000      0.0000     -0.0193      0.0193      0.0129
        10        -0.0030     -0.0235      0.0000      0.0265      0.0177
        11        -0.0139     -0.0004      0.0000      0.0143      0.0095
        12        -0.0136      0.0000      0.0000      0.0136      0.0091
        13        -0.0729     -0.0021      0.0000      0.0750      0.0500
        14         0.0000      0.0000     -0.0143      0.0143      0.0095
        15         0.0000      0.0000     -0.0046      0.0046      0.0031
        16        -0.0100     -0.0235      0.0000      0.0335      0.0223
        17        -0.0125     -0.0001      0.0000      0.0126      0.0084
        18         0.0000      0.0000     -0.0027      0.0027      0.0018
        19         0.0000      0.0000     -0.0040      0.0040      0.0027
        20         0.0000      0.0000     -0.0006      0.0006      0.0004
 Ground to excited state transition densities written to RWF  633

 Excitation energies and oscillator strengths:
 
 Excited state symmetry could not be determined.
 Excited State   1:      Singlet-?Sym    5.3502 eV  231.74 nm  f=0.0005  <S**2>=0.000
      12 -> 16         0.60401
      12 -> 17        -0.32880
      12 -> 22         0.12447
 
 Excited state symmetry could not be determined.
 Excited State   2:      Singlet-?Sym    6.2377 eV  198.77 nm  f=0.0087  <S**2>=0.000
      11 -> 16        -0.12705
      12 -> 13         0.64106
      12 -> 15        -0.15721
      12 -> 18        -0.11427
 
 Excited state symmetry could not be determined.
 Excited State   3:      Singlet-?Sym    6.5729 eV  188.63 nm  f=0.0071  <S**2>=0.000
      11 -> 13         0.66470
      11 -> 18        -0.17980
 This state for optimization and/or second-order correction.
 Copying the excited state density for this state as the 1-particle RhoCI density.
 
 Excited state symmetry could not be determined.
 Excited State   4:      Singlet-?Sym    6.8134 eV  181.97 nm  f=0.0603  <S**2>=0.000
      12 -> 14         0.65363
      12 -> 20        -0.10968
      12 -> 21         0.15736
 
 Excited state symmetry could not be determined.
 Excited State   5:      Singlet-?Sym    7.2681 eV  170.59 nm  f=0.0243  <S**2>=0.000
      12 -> 13         0.14161
      12 -> 15         0.60279
      12 -> 18        -0.14371
      12 -> 19         0.23641
      12 -> 23         0.12459
 
 Excited state symmetry could not be determined.
 Excited State   6:      Singlet-?Sym    7.3517 eV  168.65 nm  f=0.0011  <S**2>=0.000
      11 -> 14         0.65263
      11 -> 21         0.21904
 
 Excited state symmetry could not be determined.
 Excited State   7:      Singlet-?Sym    7.6675 eV  161.70 nm  f=0.0102  <S**2>=0.000
      12 -> 16         0.33792
      12 -> 17         0.60952
 
 Excited state symmetry could not be determined.
 Excited State   8:      Singlet-?Sym    7.7345 eV  160.30 nm  f=0.2581  <S**2>=0.000
      11 -> 16         0.48294
      11 -> 17        -0.39927
      12 -> 13         0.20440
      12 -> 18         0.15985
 
 Excited state symmetry could not be determined.
 Excited State   9:      Singlet-?Sym    7.9988 eV  155.00 nm  f=0.0128  <S**2>=0.000
      11 -> 15         0.64557
      11 -> 19         0.15420
      11 -> 23         0.15586
 
 Excited state symmetry could not be determined.
 Excited State  10:      Singlet-?Sym    8.2253 eV  150.74 nm  f=0.0177  <S**2>=0.000
      12 -> 15        -0.25547
      12 -> 19         0.63039
 
 Excited state symmetry could not be determined.
 Excited State  11:      Singlet-?Sym    8.3695 eV  148.14 nm  f=0.0098  <S**2>=0.000
      11 -> 16         0.36331
      11 -> 17         0.55841
      12 -> 18         0.16092
      12 -> 20        -0.11338
 
 Excited state symmetry could not be determined.
 Excited State  12:      Singlet-?Sym    8.5689 eV  144.69 nm  f=0.0086  <S**2>=0.000
      11 -> 16         0.26510
      12 -> 14         0.11535
      12 -> 18        -0.43111
      12 -> 20         0.43844
 
 Excited state symmetry could not be determined.
 Excited State  13:      Singlet-?Sym    8.9338 eV  138.78 nm  f=0.0500  <S**2>=0.000
      11 -> 16        -0.10893
      12 -> 13         0.11874
      12 -> 18         0.41428
      12 -> 20         0.45744
      12 -> 21        -0.20728
      12 -> 23         0.10926
 
 Excited state symmetry could not be determined.
 Excited State  14:      Singlet-?Sym    8.9370 eV  138.73 nm  f=0.0095  <S**2>=0.000
      11 -> 15        -0.14581
      11 -> 18        -0.18179
      11 -> 19         0.62234
      11 -> 24        -0.15721
 
 Excited state symmetry could not be determined.
 Excited State  15:      Singlet-?Sym    9.0336 eV  137.25 nm  f=0.0030  <S**2>=0.000
      11 -> 13         0.15859
      11 -> 18         0.56153
      11 -> 19         0.19491
      11 -> 20        -0.25393
      11 -> 24         0.12751
 
 Excited state symmetry could not be determined.
 Excited State  16:      Singlet-?Sym    9.1795 eV  135.07 nm  f=0.0223  <S**2>=0.000
      12 -> 14        -0.15568
      12 -> 18         0.12707
      12 -> 20         0.19571
      12 -> 21         0.60699
      12 -> 23        -0.11985
      12 -> 24         0.10708
 
 Excited state symmetry could not be determined.
 Excited State  17:      Singlet-?Sym    9.3059 eV  133.23 nm  f=0.0087  <S**2>=0.000
      12 -> 21         0.16753
      12 -> 23         0.58280
      12 -> 24        -0.28051
      12 -> 26         0.10851
 
 Excited state symmetry could not be determined.
 Excited State  18:      Singlet-?Sym    9.3257 eV  132.95 nm  f=0.0019  <S**2>=0.000
      12 -> 17         0.11479
      12 -> 22         0.68003
 
 Excited state symmetry could not be determined.
 Excited State  19:      Singlet-?Sym    9.4010 eV  131.88 nm  f=0.0028  <S**2>=0.000
      10 -> 16         0.10321
      11 -> 13         0.14922
      11 -> 18         0.16337
      11 -> 20         0.58008
      11 -> 21        -0.13621
      11 -> 23        -0.13402
      11 -> 24         0.11400
 
 Excited state symmetry could not be determined.
 Excited State  20:      Singlet-?Sym    9.5851 eV  129.35 nm  f=0.0003  <S**2>=0.000
      10 -> 16         0.57664
      10 -> 17        -0.31246
      10 -> 22         0.11720
      11 -> 20        -0.15533
 SavETr:  write IOETrn=   770 NScale= 10 NData=  16 NLR=1 LETran=     370.
 FoFJK:  IHMeth= 1 ICntrl=     0 DoSepK=T KAlg= 1 I1Cent= 0 FoldK=F
 FoFJK:  IHMeth= 1 ICntrl=     0 DoSepK=T KAlg= 1 I1Cent= 0 FoldK=F
          IDoAtm=111111
          Differentiating once with respect to electric field.
                with respect to dipole field.
          Differentiating once with respect to nuclear coordinates.
          There are     1 degrees of freedom in the 1st order CPHF.  IDoFFX=0.
 FoFJK:  IHMeth= 1 ICntrl=     0 DoSepK=T KAlg= 1 I1Cent= 0 FoldK=F
 LinEq1:  Iter=  0 NonCon=     1 RMS=2.00D-02 Max=2.92D-01
 AX will form     1 AO Fock derivatives at one time.
 FoFJK:  IHMeth= 1 ICntrl=     0 DoSepK=T KAlg= 1 I1Cent= 0 FoldK=F
 LinEq1:  Iter=  1 NonCon=     1 RMS=8.74D-03 Max=1.43D-01
 FoFJK:  IHMeth= 1 ICntrl=     0 DoSepK=T KAlg= 1 I1Cent= 0 FoldK=F
 LinEq1:  Iter=  2 NonCon=     1 RMS=5.58D-03 Max=9.65D-02
 FoFJK:  IHMeth= 1 ICntrl=     0 DoSepK=T KAlg= 1 I1Cent= 0 FoldK=F
 LinEq1:  Iter=  3 NonCon=     1 RMS=1.99D-03 Max=2.26D-02
 FoFJK:  IHMeth= 1 ICntrl=     0 DoSepK=T KAlg= 1 I1Cent= 0 FoldK=F
 LinEq1:  Iter=  4 NonCon=     1 RMS=8.90D-04 Max=1.74D-02
 FoFJK:  IHMeth= 1 ICntrl=     0 DoSepK=T KAlg= 1 I1Cent= 0 FoldK=F
 LinEq1:  Iter=  5 NonCon=     1 RMS=1.76D-04 Max=1.80D-03
 FoFJK:  IHMeth= 1 ICntrl=     0 DoSepK=T KAlg= 1 I1Cent= 0 FoldK=F
 LinEq1:  Iter=  6 NonCon=     1 RMS=3.82D-05 Max=8.58D-04
 FoFJK:  IHMeth= 1 ICntrl=     0 DoSepK=T KAlg= 1 I1Cent= 0 FoldK=F
 LinEq1:  Iter=  7 NonCon=     1 RMS=8.09D-06 Max=1.52D-04
 FoFJK:  IHMeth= 1 ICntrl=     0 DoSepK=T KAlg= 1 I1Cent= 0 FoldK=F
 LinEq1:  Iter=  8 NonCon=     1 RMS=1.88D-06 Max=2.44D-05
 FoFJK:  IHMeth= 1 ICntrl=     0 DoSepK=T KAlg= 1 I1Cent= 0 FoldK=F
 LinEq1:  Iter=  9 NonCon=     1 RMS=3.87D-07 Max=4.36D-06
 FoFJK:  IHMeth= 1 ICntrl=     0 DoSepK=T KAlg= 1 I1Cent= 0 FoldK=F
 LinEq1:  Iter= 10 NonCon=     1 RMS=5.96D-08 Max=6.88D-07
 FoFJK:  IHMeth= 1 ICntrl=     0 DoSepK=T KAlg= 1 I1Cent= 0 FoldK=F
 LinEq1:  Iter= 11 NonCon=     1 RMS=9.94D-09 Max=9.15D-08
 FoFJK:  IHMeth= 1 ICntrl=     0 DoSepK=T KAlg= 1 I1Cent= 0 FoldK=F
 LinEq1:  Iter= 12 NonCon=     1 RMS=2.03D-09 Max=3.07D-08
 FoFJK:  IHMeth= 1 ICntrl=     0 DoSepK=T KAlg= 1 I1Cent= 0 FoldK=F
 LinEq1:  Iter= 13 NonCon=     1 RMS=2.95D-10 Max=3.63D-09
 FoFJK:  IHMeth= 1 ICntrl=     0 DoSepK=T KAlg= 1 I1Cent= 0 FoldK=F
 LinEq1:  Iter= 14 NonCon=     1 RMS=5.26D-11 Max=1.07D-09
 FoFJK:  IHMeth= 1 ICntrl=     0 DoSepK=T KAlg= 1 I1Cent= 0 FoldK=F
 LinEq1:  Iter= 15 NonCon=     0 RMS=1.13D-11 Max=2.85D-10
 Linear equations converged to 1.000D-10 1.000D-09 after    15 iterations.
 FoFJK:  IHMeth= 1 ICntrl=     0 DoSepK=T KAlg= 1 I1Cent= 0 FoldK=F
 End of Minotr Frequency-dependent properties file   721 does not exist.
 End of Minotr Frequency-dependent properties file   722 does not exist.

 **********************************************************************

            Population analysis using the SCF density.

 **********************************************************************

 Alpha  occ. eigenvalues --  -19.16760 -14.44568 -10.35519  -1.10785  -1.01738
 Alpha  occ. eigenvalues --   -0.72055  -0.64770  -0.56814  -0.49159  -0.47314
 Alpha  occ. eigenvalues --   -0.34956  -0.32191
 Alpha virt. eigenvalues --   -0.00496   0.01795   0.03444   0.05209   0.06190
 Alpha virt. eigenvalues --    0.07488   0.08035   0.09220   0.09960   0.11577
 Alpha virt. eigenvalues --    0.12429   0.13461   0.16885   0.17958   0.18326
 Alpha virt. eigenvalues --    0.21169   0.21868   0.22684   0.23467   0.25768
 Alpha virt. eigenvalues --    0.27579   0.27880   0.30843   0.31456   0.31654
 Alpha virt. eigenvalues --    0.33041   0.34069   0.34172   0.36984   0.39911
 Alpha virt. eigenvalues --    0.40462   0.41431   0.44446   0.44458   0.47694
 Alpha virt. eigenvalues --    0.52089   0.53401   0.53446   0.54269   0.57198
 Alpha virt. eigenvalues --    0.58713   0.63343   0.67479   0.72320   0.72526
 Alpha virt. eigenvalues --    0.75164   0.75528   0.75627   0.76621   0.79320
 Alpha virt. eigenvalues --    0.81648   0.81847   0.84655   0.86526   0.86608
 Alpha virt. eigenvalues --    0.87778   0.91170   0.91931   0.93256   0.95159
 Alpha virt. eigenvalues --    0.96013   0.97240   0.98263   0.99265   1.01849
 Alpha virt. eigenvalues --    1.01922   1.04336   1.04999   1.10095   1.11997
 Alpha virt. eigenvalues --    1.12641   1.16569   1.20557   1.23299   1.24941
 Alpha virt. eigenvalues --    1.27550   1.29201   1.31335   1.31875   1.36589
 Alpha virt. eigenvalues --    1.42123   1.42442   1.48839   1.50145   1.55631
 Alpha virt. eigenvalues --    1.56632   1.60235   1.62315   1.71782   1.74756
 Alpha virt. eigenvalues --    1.75497   1.82835   1.85535   1.86117   1.88248
 Alpha virt. eigenvalues --    1.92203   1.96542   2.02271   2.06234   2.11308
 Alpha virt. eigenvalues --    2.16730   2.18576   2.20721   2.23753   2.25489
 Alpha virt. eigenvalues --    2.27793   2.30352   2.33456   2.33564   2.39661
 Alpha virt. eigenvalues --    2.43784   2.45823   2.47956   2.55611   2.56920
 Alpha virt. eigenvalues --    2.64749   2.67937   2.81608   2.86439   2.93280
 Alpha virt. eigenvalues --    2.96493   3.06775   3.12333   3.22939   3.31689
 Alpha virt. eigenvalues --    3.32774   3.34711   3.42349   3.46092   3.53994
 Alpha virt. eigenvalues --    3.61106   3.64104   3.73614   3.76082   3.83776
 Alpha virt. eigenvalues --    3.84116   3.88758   3.90339   3.95434   4.01424
 Alpha virt. eigenvalues --    4.03104   4.07504   4.09803   4.10874   4.16516
 Alpha virt. eigenvalues --    4.25321   4.25677   4.35704   4.39601   4.41695
 Alpha virt. eigenvalues --    4.45151   4.54531   4.55228   4.59155   4.67615
 Alpha virt. eigenvalues --    4.72969   4.74552   4.79020   4.89793   4.91558
 Alpha virt. eigenvalues --    4.94176   5.06367   5.16321   5.16954   5.25671
 Alpha virt. eigenvalues --    5.32844   5.34347   5.44692   5.51117   5.64603
 Alpha virt. eigenvalues --    5.65224   5.78618   5.79309   5.90226   6.01343
 Alpha virt. eigenvalues --    6.09451   6.26982   6.30752   6.34599   6.55644
 Alpha virt. eigenvalues --    6.55982   6.69618   6.73733   6.83465   6.85583
 Alpha virt. eigenvalues --    7.00019   7.14221   7.15719   7.21783   7.31514
 Alpha virt. eigenvalues --    7.41801   7.59228  14.03479  16.34272  16.93876
          Condensed to atoms (all electrons):
              1          2          3          4          5          6
     1  C    5.057665   0.387157   0.405845  -0.047360  -0.041619   0.262648
     2  N    0.387157   6.071434  -0.119833   0.406811   0.436621  -0.044601
     3  O    0.405845  -0.119833   8.302978   0.005656  -0.000574  -0.028244
     4  H   -0.047360   0.406811   0.005656   0.557052  -0.066682   0.003737
     5  H   -0.041619   0.436621  -0.000574  -0.066682   0.556954   0.003382
     6  H    0.262648  -0.044601  -0.028244   0.003737   0.003382   0.328030
 Mulliken atomic charges:
              1
     1  C   -0.024336
     2  N   -0.137588
     3  O   -0.565828
     4  H    0.140786
     5  H    0.111919
     6  H    0.475048
 Sum of Mulliken atomic charges =   0.00000
 Mulliken charges with hydrogens summed into heavy atoms:
              1
     1  C    0.450711
     2  N    0.115117
     3  O   -0.565828
 Sum of Mulliken charges with hydrogens summed into heavy atoms =   0.00000
 Electronic spatial extent (au):  <R**2>=            148.0202
 Charge=              0.0000 electrons
 Dipole moment (field-independent basis, Debye):
    X=              4.6803    Y=              0.7564    Z=              0.0003  Tot=              4.7410
 Quadrupole moment (field-independent basis, Debye-Ang):
   XX=            -18.4314   YY=            -15.5281   ZZ=            -19.1560
   XY=             -1.3562   XZ=              0.0000   YZ=             -0.0001
 Traceless Quadrupole moment (field-independent basis, Debye-Ang):
   XX=             -0.7262   YY=              2.1771   ZZ=             -1.4509
   XY=             -1.3562   XZ=              0.0000   YZ=             -0.0001
 Octapole moment (field-independent basis, Debye-Ang**2):
  XXX=             15.2451  YYY=             -2.2814  ZZZ=             -0.0020  XYY=              3.5609
  XXY=              0.7856  XXZ=              0.0003  XZZ=             -0.7741  YZZ=             -0.2891
  YYZ=             -0.0004  XYZ=              0.0001
 Hexadecapole moment (field-independent basis, Debye-Ang**3):
 XXXX=           -116.8406 YYYY=            -34.3631 ZZZZ=            -19.1658 XXXY=              3.6674
 XXXZ=             -0.0031 YYYX=             -4.0104 YYYZ=             -0.0005 ZZZX=             -0.0048
 ZZZY=              0.0000 XXYY=            -23.9546 XXZZ=            -26.4570 YYZZ=            -10.1311
 XXYZ=              0.0002 YYXZ=             -0.0011 ZZXY=              0.4059
 N-N= 7.110898958872D+01 E-N=-5.405285932803D+02  KE= 1.688638437987D+02
 Calling FoFJK, ICntrl=      5127 FMM=F ISym2X=0 I1Cent= 0 IOpClX= 0 NMat=1 NMatS=1 NMatT=0.
 FoFJK:  IHMeth= 1 ICntrl=  5127 DoSepK=T KAlg= 1 I1Cent= 0 FoldK=F
 -------------------------------------------------------------------
 Center     Atomic                   Forces (Hartrees/Bohr)
 Number     Number              X              Y              Z
 -------------------------------------------------------------------
      1        6          -0.056651837    0.056656606   -0.000014869
      2        7           0.007711973   -0.021470618   -0.000000273
      3        8           0.018957063   -0.022613294    0.000005237
      4        1           0.001239128   -0.008871873    0.000001758
      5        1           0.012702427    0.006434443    0.000001641
      6        1           0.016041246   -0.010135264    0.000006506
 -------------------------------------------------------------------
 Cartesian Forces:  Max     0.056656606 RMS     0.021671332

 GradGradGradGradGradGradGradGradGradGradGradGradGradGradGradGradGradGrad
 Berny optimization.
 Internal  Forces:  Max     0.034641748 RMS     0.015622817
 Search for a local minimum.
 Step number   1 out of a maximum of   25
 All quantities printed in internal units (Hartrees-Bohrs-Radians)
 Mixed Optimization -- RFO/linear search
 Second derivative matrix not updated -- first step.
 The second derivative matrix:
                          R1        R2        R3        R4        R5
           R1           0.70235
           R2           0.00000   0.80565
           R3           0.00000   0.00000   0.33347
           R4           0.00000   0.00000   0.00000   0.44749
           R5           0.00000   0.00000   0.00000   0.00000   0.40718
           A1           0.00000   0.00000   0.00000   0.00000   0.00000
           A2           0.00000   0.00000   0.00000   0.00000   0.00000
           A3           0.00000   0.00000   0.00000   0.00000   0.00000
           A4           0.00000   0.00000   0.00000   0.00000   0.00000
           A5           0.00000   0.00000   0.00000   0.00000   0.00000
           A6           0.00000   0.00000   0.00000   0.00000   0.00000
           D1           0.00000   0.00000   0.00000   0.00000   0.00000
           D2           0.00000   0.00000   0.00000   0.00000   0.00000
           D3           0.00000   0.00000   0.00000   0.00000   0.00000
           D4           0.00000   0.00000   0.00000   0.00000   0.00000
                          A1        A2        A3        A4        A5
           A1           0.25000
           A2           0.00000   0.16000
           A3           0.00000   0.00000   0.16000
           A4           0.00000   0.00000   0.00000   0.16000
           A5           0.00000   0.00000   0.00000   0.00000   0.16000
           A6           0.00000   0.00000   0.00000   0.00000   0.00000
           D1           0.00000   0.00000   0.00000   0.00000   0.00000
           D2           0.00000   0.00000   0.00000   0.00000   0.00000
           D3           0.00000   0.00000   0.00000   0.00000   0.00000
           D4           0.00000   0.00000   0.00000   0.00000   0.00000
                          A6        D1        D2        D3        D4
           A6           0.16000
           D1           0.00000   0.03155
           D2           0.00000   0.00000   0.03155
           D3           0.00000   0.00000   0.00000   0.03155
           D4           0.00000   0.00000   0.00000   0.00000   0.03155
     Eigenvalues ---    0.03155   0.03155   0.03155   0.16000   0.16000
     Eigenvalues ---    0.16000   0.22000   0.33347   0.40718   0.44749
     Eigenvalues ---    0.70235   0.805651000.000001000.000001000.00000
 RFO step:  Lambda=-1.30758772D-02 EMin= 3.15524241D-02
 Linear search not attempted -- first point.
 Iteration  1 RMS(Cart)=  0.06665005 RMS(Int)=  0.00481088
 Iteration  2 RMS(Cart)=  0.00465635 RMS(Int)=  0.00000376
 Iteration  3 RMS(Cart)=  0.00000499 RMS(Int)=  0.00000000
 Iteration  4 RMS(Cart)=  0.00000000 RMS(Int)=  0.00000000
 Variable       Old X    -DE/DX   Delta X   Delta X   Delta X     New X
                                 (Linear)    (Quad)   (Total)
    R1        2.43655   0.02964   0.00000   0.04144   0.04144   2.47799
    R2        2.37612  -0.00720   0.00000  -0.00880  -0.00880   2.36733
    R3        2.08447  -0.01112   0.00000  -0.03209  -0.03209   2.05239
    R4        1.92268   0.00896   0.00000   0.01945   0.01945   1.94213
    R5        1.97289   0.01401   0.00000   0.03335   0.03335   2.00623
    A1        2.26082  -0.03464   0.00000  -0.14863  -0.14863   2.11219
    A2        2.06309   0.00129   0.00000  -0.01828  -0.01828   2.04480
    A3        1.95928   0.03335   0.00000   0.16691   0.16691   2.12619
    A4        2.13723  -0.00164   0.00000  -0.00946  -0.00946   2.12777
    A5        2.06535   0.00330   0.00000   0.01909   0.01909   2.08444
    A6        2.08061  -0.00167   0.00000  -0.00963  -0.00963   2.07098
    D1       -0.00002   0.00000   0.00000   0.00005   0.00005   0.00002
    D2        3.14152   0.00000   0.00000   0.00010   0.00010  -3.14156
    D3       -3.14151  -0.00001   0.00000  -0.00012  -0.00012   3.14156
    D4        0.00003   0.00000   0.00000  -0.00006  -0.00006  -0.00003
         Item               Value     Threshold  Converged?
 Maximum Force            0.034642     0.000450     NO 
 RMS     Force            0.015623     0.000300     NO 
 Maximum Displacement     0.159898     0.001800     NO 
 RMS     Displacement     0.066887     0.001200     NO 
 Predicted change in Energy=-6.898474D-03
 GradGradGradGradGradGradGradGradGradGradGradGradGradGradGradGradGradGrad

                          Input orientation:                          
 ---------------------------------------------------------------------
 Center     Atomic      Atomic             Coordinates (Angstroms)
 Number     Number       Type             X           Y           Z
 ---------------------------------------------------------------------
      1          6           0       -0.131127    0.411584   -0.000005
      2          7           0        1.047952   -0.162231    0.000091
      3          8           0       -1.181405   -0.271251   -0.000052
      4          1           0        1.154700   -1.184403    0.000111
      5          1           0        1.921626    0.440929    0.000157
      6          1           0       -0.154024    1.497419    0.000015
 ---------------------------------------------------------------------
                    Distance matrix (angstroms):
                    1          2          3          4          5
     1  C    0.000000
     2  N    1.311294   0.000000
     3  O    1.252736   2.232021   0.000000
     4  H    2.049519   1.027731   2.508233   0.000000
     5  H    2.052963   1.061654   3.183709   1.797187   0.000000
     6  H    1.086076   2.049191   2.045411   2.984113   2.329055
                    6
     6  H    0.000000
 Symmetry turned off by external request.
 Stoichiometry    CH3NO
 Framework group  C1[X(CH3NO)]
 Deg. of freedom    12
 Full point group                 C1      NOp   1
 Rotational constants (GHZ):     68.4529692     11.7902464     10.0578892
 Standard basis: Aug-CC-pVTZ (5D, 7F)
 Integral buffers will be    131072 words long.
 Raffenetti 2 integral format.
 Two-electron integral symmetry is turned off.
   207 basis functions,   297 primitive gaussians,   240 cartesian basis functions
    12 alpha electrons       12 beta electrons
       nuclear repulsion energy        71.2084603024 Hartrees.
 NAtoms=    6 NActive=    6 NUniq=    6 SFac= 7.50D-01 NAtFMM=   80 NAOKFM=F Big=F
 Standard density basis: Auto (5D, 7F)
   591 Density fitting functions
 One-electron integrals computed using PRISM.
 NBasis=   207 RedAO= T  NBF=   207
 NBsUse=   207 1.00D-06 NBFU=   207
 Initial guess read from the read-write file.
 B after Tr=     0.000000    0.000000    0.000000
         Rot=    1.000000    0.000000    0.000000    0.000000 Ang=   0.00 deg.
 Harris functional with IExCor=20419 diagonalized for initial guess.
 ExpMin= 2.53D-02 ExpMax= 1.53D+04 ExpMxC= 5.22D+02 IAcc=3 IRadAn=         0 AccDes= 0.00D+00
 HarFok:  IExCor=20419 AccDes= 0.00D+00 IRadAn=         0 IDoV= 1
 ScaDFX=  1.000000  1.000000  1.000000  1.000000
 FoFCou: FMM=F IPFlag=           0 FMFlag=      100000 FMFlg1=           0
         NFxFlg=           0 DoJE=T BraDBF=F KetDBF=T FulRan=T
         Omega=  0.000000  0.000000  1.000000  0.000000  0.000000 ICntrl=     500 IOpCl=  0
         NMat0=    1 NMatS0=    1 NMatT0=    0 NMatD0=    1 NMtDS0=    0 NMtDT0=    0
         I1Cent=           4 NGrid=           0.
 Symmetry not used in FoFCou.
 Requested convergence on RMS density matrix=1.00D-08 within 128 cycles.
 Requested convergence on MAX density matrix=1.00D-06.
 Requested convergence on             energy=1.00D-06.
 No special actions if energy rises.
 FoFJK:  IHMeth= 1 ICntrl=     0 DoSepK=T KAlg= 1 I1Cent= 0 FoldK=F
 FoFJK:  IHMeth= 1 ICntrl=     0 DoSepK=T KAlg= 1 I1Cent= 0 FoldK=F
 FoFJK:  IHMeth= 1 ICntrl=     0 DoSepK=T KAlg= 1 I1Cent= 0 FoldK=F
 FoFJK:  IHMeth= 1 ICntrl=     0 DoSepK=T KAlg= 1 I1Cent= 0 FoldK=F
 FoFJK:  IHMeth= 1 ICntrl=     0 DoSepK=T KAlg= 1 I1Cent= 0 FoldK=F
 FoFJK:  IHMeth= 1 ICntrl=     0 DoSepK=T KAlg= 1 I1Cent= 0 FoldK=F
 FoFJK:  IHMeth= 1 ICntrl=     0 DoSepK=T KAlg= 1 I1Cent= 0 FoldK=F
 FoFJK:  IHMeth= 1 ICntrl=     0 DoSepK=T KAlg= 1 I1Cent= 0 FoldK=F
 FoFJK:  IHMeth= 1 ICntrl=     0 DoSepK=T KAlg= 1 I1Cent= 0 FoldK=F
 FoFJK:  IHMeth= 1 ICntrl=     0 DoSepK=T KAlg= 1 I1Cent= 0 FoldK=F
 SCF Done:  E(RCAM-B3LYP) =  -169.890019261     A.U. after   10 cycles
             Convg  =    0.3636D-08             -V/T =  2.0064
 ExpMin= 2.53D-02 ExpMax= 1.53D+04 ExpMxC= 5.22D+02 IAcc=3 IRadAn=         5 AccDes= 0.00D+00
 HarFok:  IExCor=  205 AccDes= 0.00D+00 IRadAn=         5 IDoV=-2
 ScaDFX=  1.000000  1.000000  1.000000  1.000000
 Range of M.O.s used for correlation:     4   207
 NBasis=   207 NAE=    12 NBE=    12 NFC=     3 NFV=     0
 NROrb=    204 NOA=     9 NOB=     9 NVA=   195 NVB=   195

 **** Warning!!: The largest alpha MO coefficient is  0.35978263D+02

 Would need an additional   518800000 words for in-memory AO integral storage.
 Generating guess from densities on rwf.
 Convergence on wavefunction:    0.000001000000000
 Iteration     1 Dimension    40 NMult    40
 CISAX will form    40 AO SS matrices at one time.
 FoFJK:  IHMeth= 1 ICntrl=     0 DoSepK=T KAlg= 1 I1Cent= 0 FoldK=F
 FoFJK:  IHMeth= 1 ICntrl=     0 DoSepK=T KAlg= 1 I1Cent= 0 FoldK=F
 New state      2 was old state      3
 New state      3 was old state      2
 New state      5 was old state      6
 New state      6 was old state      8
 New state      7 was old state      5
 New state      8 was old state      9
 New state      9 was old state      7
 New state     10 was old state     11
 New state     11 was old state     10
 New state     12 was old state     14
 New state     13 was old state     12
 New state     14 was old state     15
 New state     15 was old state     19
 New state     16 was old state     13
 New state     17 was old state     20
 New state     18 was old state     16
 New state     19 was old state     18
 New state     20 was old state     17
 Iteration     2 Dimension    80 NMult    80
 FoFJK:  IHMeth= 1 ICntrl=     0 DoSepK=T KAlg= 1 I1Cent= 0 FoldK=F
 FoFJK:  IHMeth= 1 ICntrl=     0 DoSepK=T KAlg= 1 I1Cent= 0 FoldK=F
 New state      2 was old state      3
 New state      3 was old state      2
 New state     12 was old state     13
 New state     13 was old state     12
 New state     15 was old state     16
 New state     16 was old state     15
 New state     17 was old state     18
 New state     18 was old state     20
 New state     20 was old state     17
 Iteration     3 Dimension   120 NMult   120
 FoFJK:  IHMeth= 1 ICntrl=     0 DoSepK=T KAlg= 1 I1Cent= 0 FoldK=F
 FoFJK:  IHMeth= 1 ICntrl=     0 DoSepK=T KAlg= 1 I1Cent= 0 FoldK=F
 Iteration     4 Dimension   160 NMult   160
 FoFJK:  IHMeth= 1 ICntrl=     0 DoSepK=T KAlg= 1 I1Cent= 0 FoldK=F
 FoFJK:  IHMeth= 1 ICntrl=     0 DoSepK=T KAlg= 1 I1Cent= 0 FoldK=F
 Iteration     5 Dimension   200 NMult   200
 FoFJK:  IHMeth= 1 ICntrl=     0 DoSepK=T KAlg= 1 I1Cent= 0 FoldK=F
 FoFJK:  IHMeth= 1 ICntrl=     0 DoSepK=T KAlg= 1 I1Cent= 0 FoldK=F
 Iteration     6 Dimension   240 NMult   240
 FoFJK:  IHMeth= 1 ICntrl=     0 DoSepK=T KAlg= 1 I1Cent= 0 FoldK=F
 FoFJK:  IHMeth= 1 ICntrl=     0 DoSepK=T KAlg= 1 I1Cent= 0 FoldK=F
 Iteration     7 Dimension   276 NMult   276
 FoFJK:  IHMeth= 1 ICntrl=     0 DoSepK=T KAlg= 1 I1Cent= 0 FoldK=F
 FoFJK:  IHMeth= 1 ICntrl=     0 DoSepK=T KAlg= 1 I1Cent= 0 FoldK=F
 Iteration     8 Dimension   298 NMult   298
 FoFJK:  IHMeth= 1 ICntrl=     0 DoSepK=T KAlg= 1 I1Cent= 0 FoldK=F
 FoFJK:  IHMeth= 1 ICntrl=     0 DoSepK=T KAlg= 1 I1Cent= 0 FoldK=F
 Iteration     9 Dimension   316 NMult   316
 FoFJK:  IHMeth= 1 ICntrl=     0 DoSepK=T KAlg= 1 I1Cent= 0 FoldK=F
 FoFJK:  IHMeth= 1 ICntrl=     0 DoSepK=T KAlg= 1 I1Cent= 0 FoldK=F
 Davidson failed to converge within maximum sub-space dimensions.
  Restart with updated initial guess:
 Iteration     1 Dimension    48 NMult   364
 FoFJK:  IHMeth= 1 ICntrl=     0 DoSepK=T KAlg= 1 I1Cent= 0 FoldK=F
 FoFJK:  IHMeth= 1 ICntrl=     0 DoSepK=T KAlg= 1 I1Cent= 0 FoldK=F
 Iteration     2 Dimension    88 NMult   404
 FoFJK:  IHMeth= 1 ICntrl=     0 DoSepK=T KAlg= 1 I1Cent= 0 FoldK=F
 FoFJK:  IHMeth= 1 ICntrl=     0 DoSepK=T KAlg= 1 I1Cent= 0 FoldK=F
 ***********************************************************************
 Excited states from <AA,BB:AA,BB> singles matrix:
 ***********************************************************************
 
 Ground to excited state transition electric dipole moments (Au):
       state          X           Y           Z        Dip. S.      Osc.
         1         0.0000      0.0000      0.0524      0.0027      0.0004
         2        -0.1666     -0.0458      0.0001      0.0299      0.0047
         3        -0.0001      0.0000     -0.2437      0.0594      0.0094
         4        -0.2396     -0.5285      0.0000      0.3367      0.0576
         5         0.0000      0.0000      0.0648      0.0042      0.0007
         6         0.6714     -0.3431      0.0000      0.5685      0.1024
         7        -0.9827     -0.1469      0.0000      0.9874      0.1825
         8         0.0000      0.0000      0.2658      0.0706      0.0136
         9         0.0000      0.0000     -0.0915      0.0084      0.0016
        10         0.2182      0.0114      0.0000      0.0477      0.0097
        11         0.0166     -0.2365      0.0000      0.0562      0.0115
        12        -0.0540      0.0090      0.0000      0.0030      0.0006
        13         0.0000      0.0000     -0.2135      0.0456      0.0098
        14         0.0000      0.0000      0.0703      0.0049      0.0011
        15         0.4807      0.0487      0.0001      0.2334      0.0523
        16         0.0001      0.0000     -0.1199      0.0144      0.0033
        17         0.1392     -0.2446      0.0000      0.0792      0.0182
        18        -0.1813     -0.0200      0.0000      0.0333      0.0077
        19         0.0000      0.0000      0.0595      0.0035      0.0008
        20         0.0001      0.0000     -0.1664      0.0277      0.0065
 Ground to excited state transition velocity dipole moments (Au):
       state          X           Y           Z        Dip. S.      Osc.
         1         0.0000      0.0000     -0.0111      0.0001      0.0004
         2         0.0398      0.0105      0.0000      0.0017      0.0048
         3         0.0000      0.0000      0.0579      0.0034      0.0094
         4         0.0614      0.1356      0.0000      0.0222      0.0575
         5         0.0000      0.0000     -0.0174      0.0003      0.0008
         6        -0.1811      0.0932      0.0000      0.0415      0.1023
         7         0.2713      0.0410      0.0000      0.0753      0.1809
         8         0.0000      0.0000     -0.0759      0.0058      0.0133
         9         0.0000      0.0000      0.0274      0.0007      0.0017
        10        -0.0638     -0.0025      0.0000      0.0041      0.0089
        11        -0.0036      0.0726      0.0000      0.0053      0.0114
        12         0.0201     -0.0013      0.0000      0.0004      0.0008
        13         0.0000      0.0000      0.0694      0.0048      0.0100
        14         0.0000      0.0000     -0.0238      0.0006      0.0012
        15        -0.1617     -0.0152      0.0000      0.0264      0.0523
        16         0.0000      0.0000      0.0380      0.0014      0.0028
        17        -0.0484      0.0833      0.0000      0.0093      0.0180
        18         0.0609      0.0086      0.0000      0.0038      0.0073
        19         0.0000      0.0000     -0.0182      0.0003      0.0006
        20         0.0000      0.0000      0.0583      0.0034      0.0065
 Ground to excited state transition magnetic dipole moments (Au):
       state          X           Y           Z
         1        -0.8907     -0.3776      0.0000
         2         0.0000      0.0002      0.3011
         3        -0.0067     -0.3782      0.0002
         4         0.0000      0.0000      0.0428
         5         0.0398      0.0584      0.0000
         6         0.0000      0.0000     -0.0026
         7         0.0000      0.0000     -0.6718
         8        -0.0616     -0.1001      0.0000
         9        -0.0267      0.4022      0.0000
        10         0.0000      0.0000     -0.0384
        11         0.0000      0.0000     -0.2160
        12         0.0000      0.0000     -0.3047
        13        -0.0959      0.3529     -0.0001
        14         0.0543      0.4708      0.0000
        15         0.0000      0.0000     -0.1058
        16        -0.1784     -0.0763      0.0000
        17         0.0000      0.0000      0.1176
        18         0.0000      0.0000     -0.1366
        19        -0.4628      0.3033      0.0000
        20        -0.5942      0.5723      0.0000
 <0|del|b> * <b|rxdel|0> + <0|del|b> * <b|delr+rdel|0>
 Rotatory Strengths (R) in cgs (10**-40 erg-esu-cm/Gauss)
       state          XX          YY          ZZ    R(velocity)
         1         0.0024     -0.0007      0.0003      0.0007
 Total R(velocity) tensor for State=          1
                 1             2             3 
      1   0.244452D-02  0.691902D-03  0.000000D+00
      2  -0.467257D-02 -0.701818D-03  0.000000D+00
      3  -0.154559D+02 -0.728246D+01  0.342596D-03
         2        -0.0162     -0.0025     -0.0006     -0.0064
 Total R(velocity) tensor for State=          2
                 1             2             3 
      1  -0.161853D-01 -0.245016D-01 -0.291436D+02
      2  -0.167069D-01 -0.252615D-02 -0.223461D+02
      3  -0.107536D+01  0.406964D+01 -0.569693D-03
         3         0.0188      0.0041     -0.0001      0.0076
 Total R(velocity) tensor for State=          3
                 1             2             3 
      1   0.188091D-01  0.257419D-01 -0.100298D-04
      2   0.185538D-01  0.411255D-02 -0.739027D-05
      3  -0.789114D+00  0.317224D+01 -0.794466D-04
         4         0.0014     -0.0012     -0.0051     -0.0016
 Total R(velocity) tensor for State=          4
                 1             2             3 
      1   0.136933D-02  0.951140D-03 -0.531726D+02
      2   0.320276D-02 -0.119857D-02 -0.848932D+01
      3   0.520613D+00 -0.235595D+00 -0.511548D-02
         5         0.0005     -0.0026      0.0011     -0.0003
 Total R(velocity) tensor for State=          5
                 1             2             3 
      1   0.548516D-03  0.140038D-02  0.000000D+00
      2  -0.209031D-02 -0.256441D-02  0.000000D+00
      3  -0.126141D+01  0.416608D+00  0.110756D-02
         6        -0.0051      0.0011      0.0047      0.0002
 Total R(velocity) tensor for State=          6
                 1             2             3 
      1  -0.510310D-02 -0.269204D-02  0.669607D+02
      2   0.149776D-02  0.109786D-02 -0.168017D+02
      3   0.122130D+02  0.237396D+02  0.466474D-02
         7        -0.0192     -0.0026      0.0158     -0.0020
 Total R(velocity) tensor for State=          7
                 1             2             3 
      1  -0.191782D-01  0.139964D-01  0.337752D+03
      2  -0.236259D-02 -0.263580D-02  0.546412D+02
      3  -0.370366D+01  0.245238D+02  0.158216D-01
         8        -0.0028     -0.0001      0.0002     -0.0009
 Total R(velocity) tensor for State=          8
                 1             2             3 
      1  -0.277318D-02  0.249532D-03  0.000000D+00
      2  -0.550488D-03 -0.997602D-04  0.000000D+00
      3  -0.199465D+01 -0.125283D+02  0.197985D-03
         9         0.0006     -0.0008      0.0003      0.0000
 Total R(velocity) tensor for State=          9
                 1             2             3 
      1   0.567883D-03 -0.650656D-02  0.000000D+00
      2  -0.768222D-04 -0.758293D-03  0.000000D+00
      3   0.118741D+01 -0.611271D+01  0.274180D-03
        10         0.0005      0.0005     -0.0001      0.0003
 Total R(velocity) tensor for State=         10
                 1             2             3 
      1   0.541090D-03 -0.119942D-02 -0.667652D+01
      2   0.348711D-03  0.507270D-03 -0.499138D+01
      3  -0.460838D+00  0.115932D+02 -0.984888D-04
        11        -0.0014      0.0000     -0.0006     -0.0007
 Total R(velocity) tensor for State=         11
                 1             2             3 
      1  -0.140343D-02 -0.204230D-03 -0.430815D+01
      2   0.779278D-03 -0.178648D-04 -0.179885D+01
      3   0.179785D+01  0.887694D-01 -0.607728D-03
        12         0.0027      0.0032      0.0006      0.0022
 Total R(velocity) tensor for State=         12
                 1             2             3 
      1   0.266736D-02  0.115704D-02  0.703780D+01
      2  -0.797341D-03  0.321223D-02 -0.274732D+01
      3   0.215188D+00  0.323250D+01  0.601745D-03
        13        -0.0043     -0.0044     -0.0002     -0.0029
 Total R(velocity) tensor for State=         13
                 1             2             3 
      1  -0.429789D-02 -0.721294D-02  0.000000D+00
      2   0.204549D-02 -0.437042D-02  0.000000D+00
      3   0.235350D+01 -0.394951D-02 -0.159683D-03
        14         0.0013     -0.0005      0.0020      0.0009
 Total R(velocity) tensor for State=         14
                 1             2             3 
      1   0.132484D-02 -0.340658D-02  0.000000D+00
      2   0.134009D-03 -0.516205D-03  0.000000D+00
      3   0.496210D+01  0.958927D+01  0.203765D-02
        15         0.0011     -0.0031     -0.0060     -0.0027
 Total R(velocity) tensor for State=         15
                 1             2             3 
      1   0.112538D-02  0.170231D-02 -0.124116D+02
      2   0.228558D-02 -0.307353D-02 -0.192882D+02
      3   0.101030D+01 -0.107659D+02 -0.603473D-02
        16        -0.0002      0.0018      0.0046      0.0021
 Total R(velocity) tensor for State=         16
                 1             2             3 
      1  -0.184504D-03 -0.157622D-02  0.000000D+00
      2  -0.632897D-03  0.177175D-02  0.000000D+00
      3   0.793477D+01  0.365725D+01  0.460497D-02
        17         0.0001      0.0009      0.0004      0.0005
 Total R(velocity) tensor for State=         17
                 1             2             3 
      1   0.699812D-04  0.637169D-04  0.705014D+00
      2   0.122368D-02  0.935556D-03  0.686175D+01
      3  -0.363737D+01 -0.211453D+01  0.350802D-03
        18         0.0009     -0.0079     -0.0007     -0.0026
 Total R(velocity) tensor for State=         18
                 1             2             3 
      1   0.876659D-03  0.110332D-02 -0.466191D+01
      2   0.620274D-02 -0.791587D-02 -0.229709D+02
      3   0.116205D+01 -0.823954D+01 -0.744577D-03
        19        -0.0006      0.0031      0.0008      0.0011
 Total R(velocity) tensor for State=         19
                 1             2             3 
      1  -0.560873D-03  0.159841D-02  0.000000D+00
      2  -0.957076D-03  0.313342D-02  0.000000D+00
      3  -0.561530D+01  0.477021D+01  0.770656D-03
        20        -0.0018      0.0151      0.0051      0.0061
 Total R(velocity) tensor for State=         20
                 1             2             3 
      1  -0.175731D-02  0.114236D-01  0.000000D+00
      2  -0.551812D-02  0.150508D-01 -0.109368D-05
      3   0.208750D+02 -0.371629D+02  0.508372D-02
 1/2[<0|r|b>*<b|rxdel|0> + (<0|rxdel|b>*<b|r|0>)*]
 Rotatory Strengths (R) in cgs (10**-40 erg-esu-cm/Gauss)
       state          XX          YY          ZZ     R(length)     R(au)
         1        -0.0030      0.0035      0.0016      0.0007      0.0000
         2         0.0011      0.0078     -0.0279     -0.0063      0.0000
         3        -0.0004     -0.0079      0.0309      0.0075      0.0000
         4        -0.0028     -0.0026      0.0005     -0.0017      0.0000
         5        -0.0013      0.0016     -0.0013     -0.0003      0.0000
         6         0.0023     -0.0017      0.0001      0.0002      0.0000
         7         0.0195     -0.0019     -0.0236     -0.0020      0.0000
         8         0.0001      0.0002     -0.0031     -0.0009      0.0000
         9        -0.0005      0.0026     -0.0019      0.0001      0.0000
        10         0.0005      0.0000      0.0004      0.0003      0.0000
        11         0.0000     -0.0032      0.0012     -0.0007      0.0000
        12         0.0012      0.0001      0.0050      0.0021      0.0000
        13        -0.0010      0.0024     -0.0102     -0.0029      0.0000
        14         0.0007      0.0019      0.0002      0.0009      0.0000
        15        -0.0117      0.0000      0.0038     -0.0026      0.0000
        16         0.0077      0.0005     -0.0021      0.0020      0.0000
        17         0.0020      0.0000     -0.0006      0.0005      0.0000
        18        -0.0045      0.0003     -0.0038     -0.0027      0.0000
        19         0.0035     -0.0011      0.0008      0.0011      0.0000
        20         0.0231     -0.0030     -0.0014      0.0062      0.0000
  1/2[<0|del|b>*<b|r|0> + (<0|r|b>*<b|del|0>)*] (Au)
       state          X           Y           Z        Dip. S.   Osc.(frdel)
         1         0.0000      0.0000     -0.0006      0.0006      0.0004
         2        -0.0066     -0.0005      0.0000      0.0071      0.0047
         3         0.0000      0.0000     -0.0141      0.0141      0.0094
         4        -0.0147     -0.0717      0.0000      0.0864      0.0576
         5         0.0000      0.0000     -0.0011      0.0011      0.0008
         6        -0.1216     -0.0320      0.0000      0.1535      0.1024
         7        -0.2666     -0.0060      0.0000      0.2726      0.1817
         8         0.0000      0.0000     -0.0202      0.0202      0.0134
         9         0.0000      0.0000     -0.0025      0.0025      0.0017
        10        -0.0139      0.0000      0.0000      0.0139      0.0093
        11        -0.0001     -0.0172      0.0000      0.0172      0.0115
        12        -0.0011      0.0000      0.0000      0.0011      0.0007
        13         0.0000      0.0000     -0.0148      0.0148      0.0099
        14         0.0000      0.0000     -0.0017      0.0017      0.0011
        15        -0.0777     -0.0007      0.0000      0.0785      0.0523
        16         0.0000      0.0000     -0.0046      0.0046      0.0030
        17        -0.0067     -0.0204      0.0000      0.0271      0.0181
        18        -0.0110     -0.0002      0.0000      0.0112      0.0075
        19         0.0000      0.0000     -0.0011      0.0011      0.0007
        20         0.0000      0.0000     -0.0097      0.0097      0.0065
 Ground to excited state transition densities written to RWF  633

 Excitation energies and oscillator strengths:
 
 Excited state symmetry could not be determined.
 Excited State   1:      Singlet-?Sym    5.3196 eV  233.07 nm  f=0.0004  <S**2>=0.000
      12 -> 16         0.64877
      12 -> 17        -0.23684
      12 -> 22         0.10876
 
 Excited state symmetry could not be determined.
 Excited State   2:      Singlet-?Sym    6.4198 eV  193.13 nm  f=0.0047  <S**2>=0.000
      11 -> 16        -0.19738
      12 -> 13         0.62852
      12 -> 15         0.14689
      12 -> 19        -0.11188
 
 Excited state symmetry could not be determined.
 Excited State   3:      Singlet-?Sym    6.4473 eV  192.30 nm  f=0.0094  <S**2>=0.000
      11 -> 13         0.66434
      11 -> 18        -0.15650
      11 -> 19        -0.10843
 This state for optimization and/or second-order correction.
 Copying the excited state density for this state as the 1-particle RhoCI density.
 
 Excited state symmetry could not be determined.
 Excited State   4:      Singlet-?Sym    6.9871 eV  177.45 nm  f=0.0576  <S**2>=0.000
      11 -> 16         0.10826
      12 -> 14        -0.65280
      12 -> 20        -0.10153
      12 -> 21         0.15960
 
 Excited state symmetry could not be determined.
 Excited State   5:      Singlet-?Sym    7.2356 eV  171.35 nm  f=0.0007  <S**2>=0.000
      11 -> 14        -0.64385
      11 -> 15        -0.13470
      11 -> 21         0.21725
 
 Excited state symmetry could not be determined.
 Excited State   6:      Singlet-?Sym    7.3546 eV  168.58 nm  f=0.1024  <S**2>=0.000
      11 -> 16        -0.36273
      11 -> 17         0.18333
      12 -> 14        -0.12498
      12 -> 15        -0.47424
      12 -> 18        -0.19843
      12 -> 19         0.17521
      12 -> 23         0.11349
 
 Excited state symmetry could not be determined.
 Excited State   7:      Singlet-?Sym    7.5454 eV  164.32 nm  f=0.1825  <S**2>=0.000
      11 -> 16         0.42622
      11 -> 17        -0.22372
      12 -> 13         0.28604
      12 -> 15        -0.38478
      12 -> 19         0.10143
 
 Excited state symmetry could not be determined.
 Excited State   8:      Singlet-?Sym    7.8571 eV  157.80 nm  f=0.0136  <S**2>=0.000
      11 -> 15         0.33379
      12 -> 16         0.20542
      12 -> 17         0.55684
 
 Excited state symmetry could not be determined.
 Excited State   9:      Singlet-?Sym    7.8623 eV  157.69 nm  f=0.0016  <S**2>=0.000
      11 -> 14         0.11956
      11 -> 15        -0.54554
      11 -> 23         0.13300
      12 -> 16         0.12663
      12 -> 17         0.34337
 
 Excited state symmetry could not be determined.
 Excited State  10:      Singlet-?Sym    8.2599 eV  150.10 nm  f=0.0097  <S**2>=0.000
      11 -> 16         0.29508
      11 -> 17         0.62708
 
 Excited state symmetry could not be determined.
 Excited State  11:      Singlet-?Sym    8.3834 eV  147.89 nm  f=0.0115  <S**2>=0.000
      12 -> 15         0.26364
      12 -> 18        -0.27031
      12 -> 19         0.56429
 
 Excited state symmetry could not be determined.
 Excited State  12:      Singlet-?Sym    8.6817 eV  142.81 nm  f=0.0006  <S**2>=0.000
      11 -> 16         0.12452
      12 -> 14        -0.12803
      12 -> 18        -0.45556
      12 -> 19        -0.24463
      12 -> 20         0.42143
 
 Excited state symmetry could not be determined.
 Excited State  13:      Singlet-?Sym    8.7523 eV  141.66 nm  f=0.0098  <S**2>=0.000
      11 -> 15         0.11047
      11 -> 18        -0.43928
      11 -> 19         0.47151
      11 -> 24        -0.19210
      11 -> 29         0.10616
 
 Excited state symmetry could not be determined.
 Excited State  14:      Singlet-?Sym    8.9192 eV  139.01 nm  f=0.0011  <S**2>=0.000
      11 -> 13         0.15221
      11 -> 18         0.42241
      11 -> 19         0.43971
      11 -> 20        -0.22982
      11 -> 21        -0.10188
 
 Excited state symmetry could not be determined.
 Excited State  15:      Singlet-?Sym    9.1511 eV  135.49 nm  f=0.0523  <S**2>=0.000
      12 -> 13         0.12889
      12 -> 18         0.35168
      12 -> 19         0.17360
      12 -> 20         0.51666
      12 -> 21        -0.13681
      12 -> 24         0.11444
 
 Excited state symmetry could not be determined.
 Excited State  16:      Singlet-?Sym    9.2591 eV  133.91 nm  f=0.0033  <S**2>=0.000
      11 -> 13         0.15904
      11 -> 18         0.10468
      11 -> 19         0.10089
      11 -> 20         0.59606
      11 -> 23        -0.16882
      11 -> 24         0.11172
 
 Excited state symmetry could not be determined.
 Excited State  17:      Singlet-?Sym    9.3619 eV  132.43 nm  f=0.0182  <S**2>=0.000
      12 -> 14         0.17491
      12 -> 19         0.11903
      12 -> 20         0.11851
      12 -> 21         0.61266
      12 -> 23        -0.16872
      12 -> 24         0.13696
 
 Excited state symmetry could not be determined.
 Excited State  18:      Singlet-?Sym    9.4183 eV  131.64 nm  f=0.0077  <S**2>=0.000
      12 -> 21         0.21185
      12 -> 23         0.57169
      12 -> 24        -0.27573
      12 -> 26         0.14804
 
 Excited state symmetry could not be determined.
 Excited State  19:      Singlet-?Sym    9.5171 eV  130.27 nm  f=0.0008  <S**2>=0.000
      10 -> 16         0.28815
      10 -> 17        -0.10171
      11 -> 20        -0.11205
      11 -> 21        -0.12119
      11 -> 23        -0.10676
      12 -> 22         0.57640
 
 Excited state symmetry could not be determined.
 Excited State  20:      Singlet-?Sym    9.5326 eV  130.06 nm  f=0.0065  <S**2>=0.000
      10 -> 16         0.40442
      10 -> 17        -0.14605
      11 -> 14        -0.10082
      11 -> 20        -0.12955
      11 -> 21        -0.29054
      11 -> 23        -0.15696
      12 -> 22        -0.36978
 SavETr:  write IOETrn=   770 NScale= 10 NData=  16 NLR=1 LETran=     370.
 FoFJK:  IHMeth= 1 ICntrl=     0 DoSepK=T KAlg= 1 I1Cent= 0 FoldK=F
 FoFJK:  IHMeth= 1 ICntrl=     0 DoSepK=T KAlg= 1 I1Cent= 0 FoldK=F
          IDoAtm=111111
          Differentiating once with respect to electric field.
                with respect to dipole field.
          Differentiating once with respect to nuclear coordinates.
          There are     1 degrees of freedom in the 1st order CPHF.  IDoFFX=0.
 FoFJK:  IHMeth= 1 ICntrl=     0 DoSepK=T KAlg= 1 I1Cent= 0 FoldK=F
 LinEq1:  Iter=  0 NonCon=     1 RMS=1.95D-02 Max=2.32D-01
 AX will form     1 AO Fock derivatives at one time.
 FoFJK:  IHMeth= 1 ICntrl=     0 DoSepK=T KAlg= 1 I1Cent= 0 FoldK=F
 LinEq1:  Iter=  1 NonCon=     1 RMS=7.81D-03 Max=1.47D-01
 FoFJK:  IHMeth= 1 ICntrl=     0 DoSepK=T KAlg= 1 I1Cent= 0 FoldK=F
 LinEq1:  Iter=  2 NonCon=     1 RMS=5.34D-03 Max=1.06D-01
 FoFJK:  IHMeth= 1 ICntrl=     0 DoSepK=T KAlg= 1 I1Cent= 0 FoldK=F
 LinEq1:  Iter=  3 NonCon=     1 RMS=2.19D-03 Max=3.06D-02
 FoFJK:  IHMeth= 1 ICntrl=     0 DoSepK=T KAlg= 1 I1Cent= 0 FoldK=F
 LinEq1:  Iter=  4 NonCon=     1 RMS=8.82D-04 Max=1.82D-02
 FoFJK:  IHMeth= 1 ICntrl=     0 DoSepK=T KAlg= 1 I1Cent= 0 FoldK=F
 LinEq1:  Iter=  5 NonCon=     1 RMS=1.79D-04 Max=1.79D-03
 FoFJK:  IHMeth= 1 ICntrl=     0 DoSepK=T KAlg= 1 I1Cent= 0 FoldK=F
 LinEq1:  Iter=  6 NonCon=     1 RMS=3.87D-05 Max=8.36D-04
 FoFJK:  IHMeth= 1 ICntrl=     0 DoSepK=T KAlg= 1 I1Cent= 0 FoldK=F
 LinEq1:  Iter=  7 NonCon=     1 RMS=8.05D-06 Max=1.37D-04
 FoFJK:  IHMeth= 1 ICntrl=     0 DoSepK=T KAlg= 1 I1Cent= 0 FoldK=F
 LinEq1:  Iter=  8 NonCon=     1 RMS=1.87D-06 Max=2.77D-05
 FoFJK:  IHMeth= 1 ICntrl=     0 DoSepK=T KAlg= 1 I1Cent= 0 FoldK=F
 LinEq1:  Iter=  9 NonCon=     1 RMS=3.73D-07 Max=3.80D-06
 FoFJK:  IHMeth= 1 ICntrl=     0 DoSepK=T KAlg= 1 I1Cent= 0 FoldK=F
 LinEq1:  Iter= 10 NonCon=     1 RMS=5.93D-08 Max=6.02D-07
 FoFJK:  IHMeth= 1 ICntrl=     0 DoSepK=T KAlg= 1 I1Cent= 0 FoldK=F
 LinEq1:  Iter= 11 NonCon=     1 RMS=1.03D-08 Max=1.42D-07
 FoFJK:  IHMeth= 1 ICntrl=     0 DoSepK=T KAlg= 1 I1Cent= 0 FoldK=F
 LinEq1:  Iter= 12 NonCon=     1 RMS=2.55D-09 Max=6.15D-08
 FoFJK:  IHMeth= 1 ICntrl=     0 DoSepK=T KAlg= 1 I1Cent= 0 FoldK=F
 LinEq1:  Iter= 13 NonCon=     1 RMS=5.43D-10 Max=1.47D-08
 FoFJK:  IHMeth= 1 ICntrl=     0 DoSepK=T KAlg= 1 I1Cent= 0 FoldK=F
 LinEq1:  Iter= 14 NonCon=     1 RMS=8.84D-11 Max=1.23D-09
 FoFJK:  IHMeth= 1 ICntrl=     0 DoSepK=T KAlg= 1 I1Cent= 0 FoldK=F
 LinEq1:  Iter= 15 NonCon=     0 RMS=1.21D-11 Max=1.91D-10
 Linear equations converged to 1.000D-10 1.000D-09 after    15 iterations.
 FoFJK:  IHMeth= 1 ICntrl=     0 DoSepK=T KAlg= 1 I1Cent= 0 FoldK=F
 End of Minotr Frequency-dependent properties file   721 does not exist.
 End of Minotr Frequency-dependent properties file   722 does not exist.
 Calling FoFJK, ICntrl=      5127 FMM=F ISym2X=0 I1Cent= 0 IOpClX= 0 NMat=1 NMatS=1 NMatT=0.
 FoFJK:  IHMeth= 1 ICntrl=  5127 DoSepK=T KAlg= 1 I1Cent= 0 FoldK=F
 -------------------------------------------------------------------
 Center     Atomic                   Forces (Hartrees/Bohr)
 Number     Number              X              Y              Z
 -------------------------------------------------------------------
      1        6          -0.034826300    0.002217981    0.000016613
      2        7           0.017700648   -0.004458610    0.000010464
      3        8           0.015217013    0.006510079   -0.000009320
      4        1          -0.001933804   -0.002026924   -0.000003479
      5        1           0.002175570   -0.000441697   -0.000008087
[...]
 Copying the excited state density for this state as the 1-particle RhoCI density.
 
 Excited state symmetry could not be determined.
 Excited State   4:      Singlet-?Sym    7.0772 eV  175.19 nm  f=0.0492  <S**2>=0.000
      11 -> 14         0.11173
      11 -> 16        -0.16634
      12 -> 14        -0.62068
      12 -> 21         0.16482
 
 Excited state symmetry could not be determined.
 Excited State   5:      Singlet-?Sym    7.3953 eV  167.65 nm  f=0.0239  <S**2>=0.000
      11 -> 14         0.51293
      11 -> 16         0.22324
      11 -> 17         0.10539
      11 -> 21        -0.17378
      12 -> 15        -0.29655
      12 -> 18         0.11809
 
 Excited state symmetry could not be determined.
 Excited State   6:      Singlet-?Sym    7.4420 eV  166.60 nm  f=0.1549  <S**2>=0.000
      11 -> 14        -0.33441
      11 -> 15        -0.11905
      11 -> 16         0.39065
      11 -> 17         0.19148
      12 -> 13        -0.13779
      12 -> 14        -0.21867
      12 -> 15        -0.22129
      12 -> 16        -0.13805
      12 -> 18         0.10556
      12 -> 19         0.11896
 
 Excited state symmetry could not be determined.
 Excited State   7:      Singlet-?Sym    7.6117 eV  162.89 nm  f=0.1023  <S**2>=0.000
      11 -> 13         0.10159
      11 -> 14        -0.15825
      11 -> 16        -0.29473
      11 -> 17        -0.13658
      12 -> 13         0.24392
      12 -> 15        -0.48929
      12 -> 18         0.11164
      12 -> 19         0.12451
 
 Excited state symmetry could not be determined.
 Excited State   8:      Singlet-?Sym    7.9591 eV  155.78 nm  f=0.0121  <S**2>=0.000
      11 -> 15         0.13576
      12 -> 16         0.20221
      12 -> 17        -0.64395
 
 Excited state symmetry could not be determined.
 Excited State   9:      Singlet-?Sym    7.9799 eV  155.37 nm  f=0.0114  <S**2>=0.000
      11 -> 14        -0.14560
      11 -> 15         0.61406
      11 -> 19        -0.10453
      11 -> 23        -0.15799
      12 -> 17         0.13848
 
 Excited state symmetry could not be determined.
 Excited State  10:      Singlet-?Sym    8.3950 eV  147.69 nm  f=0.0080  <S**2>=0.000
      11 -> 16        -0.27847
      11 -> 17         0.63443
 
 Excited state symmetry could not be determined.
 Excited State  11:      Singlet-?Sym    8.5187 eV  145.54 nm  f=0.0101  <S**2>=0.000
      12 -> 15         0.23882
      12 -> 18         0.36285
      12 -> 19         0.51218
 
 Excited state symmetry could not be determined.
 Excited State  12:      Singlet-?Sym    8.7415 eV  141.83 nm  f=0.0028  <S**2>=0.000
      11 -> 18        -0.13787
      12 -> 14        -0.11495
      12 -> 18         0.45041
      12 -> 19        -0.35735
      12 -> 20         0.29965
 
 Excited state symmetry could not be determined.
 Excited State  13:      Singlet-?Sym    8.9315 eV  138.82 nm  f=0.0074  <S**2>=0.000
      11 -> 15        -0.10241
      11 -> 18        -0.48319
      11 -> 19        -0.40832
      11 -> 24         0.16841
      12 -> 20        -0.10387
 
 Excited state symmetry could not be determined.
 Excited State  14:      Singlet-?Sym    9.0422 eV  137.12 nm  f=0.0028  <S**2>=0.000
      11 -> 13        -0.14301
      11 -> 18         0.34438
      11 -> 19        -0.50048
      11 -> 20         0.16650
      12 -> 20         0.15674
 
 Excited state symmetry could not be determined.
 Excited State  15:      Singlet-?Sym    9.2592 eV  133.90 nm  f=0.0300  <S**2>=0.000
      11 -> 20        -0.26371
      12 -> 13         0.12762
      12 -> 18        -0.22735
      12 -> 19         0.12995
      12 -> 20         0.51114
      12 -> 21        -0.15250
 
 Excited state symmetry could not be determined.
 Excited State  16:      Singlet-?Sym    9.4509 eV  131.19 nm  f=0.0080  <S**2>=0.000
      11 -> 13         0.11049
      11 -> 20         0.40389
      12 -> 14        -0.13225
      12 -> 21        -0.35558
      12 -> 23         0.30892
      12 -> 24        -0.15143
 
 Excited state symmetry could not be determined.
 Excited State  17:      Singlet-?Sym    9.4764 eV  130.83 nm  f=0.0147  <S**2>=0.000
      11 -> 20         0.10924
      11 -> 21        -0.16193
      11 -> 23        -0.11273
      12 -> 14         0.10705
      12 -> 20         0.19346
      12 -> 21         0.49043
      12 -> 23         0.26225
      12 -> 24        -0.10230
      12 -> 26         0.13839
 
 Excited state symmetry could not be determined.
 Excited State  18:      Singlet-?Sym    9.5589 eV  129.71 nm  f=0.0186  <S**2>=0.000
      11 -> 18         0.13298
      11 -> 20        -0.32642
      12 -> 20        -0.13043
      12 -> 22        -0.43464
      12 -> 23         0.21978
      12 -> 24        -0.24214
 
 Excited state symmetry could not be determined.
 Excited State  19:      Singlet-?Sym    9.6241 eV  128.83 nm  f=0.0053  <S**2>=0.000
      11 -> 20         0.22352
      12 -> 22        -0.51871
      12 -> 23        -0.26458
      12 -> 24         0.20865
 
 Excited state symmetry could not be determined.
 Excited State  20:      Singlet-?Sym    9.7456 eV  127.22 nm  f=0.0148  <S**2>=0.000
       9 -> 16         0.45630
       9 -> 17         0.15013
      10 -> 16         0.38603
      10 -> 17         0.12828
      12 -> 23         0.14004
 SavETr:  write IOETrn=   770 NScale= 10 NData=  16 NLR=1 LETran=     370.
 FoFJK:  IHMeth= 1 ICntrl=     0 DoSepK=T KAlg= 1 I1Cent= 0 FoldK=F
 FoFJK:  IHMeth= 1 ICntrl=     0 DoSepK=T KAlg= 1 I1Cent= 0 FoldK=F
          IDoAtm=111111
          Differentiating once with respect to electric field.
                with respect to dipole field.
          Differentiating once with respect to nuclear coordinates.
          There are     1 degrees of freedom in the 1st order CPHF.  IDoFFX=0.
 FoFJK:  IHMeth= 1 ICntrl=     0 DoSepK=T KAlg= 1 I1Cent= 0 FoldK=F
 LinEq1:  Iter=  0 NonCon=     1 RMS=2.08D-02 Max=3.74D-01
 AX will form     1 AO Fock derivatives at one time.
 FoFJK:  IHMeth= 1 ICntrl=     0 DoSepK=T KAlg= 1 I1Cent= 0 FoldK=F
 LinEq1:  Iter=  1 NonCon=     1 RMS=8.93D-03 Max=9.43D-02
 FoFJK:  IHMeth= 1 ICntrl=     0 DoSepK=T KAlg= 1 I1Cent= 0 FoldK=F
 LinEq1:  Iter=  2 NonCon=     1 RMS=6.18D-03 Max=1.69D-01
 FoFJK:  IHMeth= 1 ICntrl=     0 DoSepK=T KAlg= 1 I1Cent= 0 FoldK=F
 LinEq1:  Iter=  3 NonCon=     1 RMS=2.63D-03 Max=5.89D-02
 FoFJK:  IHMeth= 1 ICntrl=     0 DoSepK=T KAlg= 1 I1Cent= 0 FoldK=F
 LinEq1:  Iter=  4 NonCon=     1 RMS=1.43D-03 Max=2.75D-02
 FoFJK:  IHMeth= 1 ICntrl=     0 DoSepK=T KAlg= 1 I1Cent= 0 FoldK=F
 LinEq1:  Iter=  5 NonCon=     1 RMS=3.50D-04 Max=6.49D-03
 FoFJK:  IHMeth= 1 ICntrl=     0 DoSepK=T KAlg= 1 I1Cent= 0 FoldK=F
 LinEq1:  Iter=  6 NonCon=     1 RMS=8.21D-05 Max=1.22D-03
 FoFJK:  IHMeth= 1 ICntrl=     0 DoSepK=T KAlg= 1 I1Cent= 0 FoldK=F
 LinEq1:  Iter=  7 NonCon=     1 RMS=1.99D-05 Max=3.03D-04
 FoFJK:  IHMeth= 1 ICntrl=     0 DoSepK=T KAlg= 1 I1Cent= 0 FoldK=F
 LinEq1:  Iter=  8 NonCon=     1 RMS=4.37D-06 Max=3.70D-05
 FoFJK:  IHMeth= 1 ICntrl=     0 DoSepK=T KAlg= 1 I1Cent= 0 FoldK=F
 LinEq1:  Iter=  9 NonCon=     1 RMS=9.14D-07 Max=7.68D-06
 FoFJK:  IHMeth= 1 ICntrl=     0 DoSepK=T KAlg= 1 I1Cent= 0 FoldK=F
 LinEq1:  Iter= 10 NonCon=     1 RMS=1.65D-07 Max=2.18D-06
 FoFJK:  IHMeth= 1 ICntrl=     0 DoSepK=T KAlg= 1 I1Cent= 0 FoldK=F
 LinEq1:  Iter= 11 NonCon=     1 RMS=3.39D-08 Max=4.10D-07
 FoFJK:  IHMeth= 1 ICntrl=     0 DoSepK=T KAlg= 1 I1Cent= 0 FoldK=F
 LinEq1:  Iter= 12 NonCon=     1 RMS=8.54D-09 Max=8.54D-08
 FoFJK:  IHMeth= 1 ICntrl=     0 DoSepK=T KAlg= 1 I1Cent= 0 FoldK=F
 LinEq1:  Iter= 13 NonCon=     1 RMS=1.35D-09 Max=1.63D-08
 FoFJK:  IHMeth= 1 ICntrl=     0 DoSepK=T KAlg= 1 I1Cent= 0 FoldK=F
 LinEq1:  Iter= 14 NonCon=     1 RMS=3.43D-10 Max=5.27D-09
 FoFJK:  IHMeth= 1 ICntrl=     0 DoSepK=T KAlg= 1 I1Cent= 0 FoldK=F
 LinEq1:  Iter= 15 NonCon=     1 RMS=6.24D-11 Max=1.05D-09
 FoFJK:  IHMeth= 1 ICntrl=     0 DoSepK=T KAlg= 1 I1Cent= 0 FoldK=F
 LinEq1:  Iter= 16 NonCon=     0 RMS=8.85D-12 Max=8.92D-11
 Linear equations converged to 1.000D-10 1.000D-09 after    16 iterations.
 FoFJK:  IHMeth= 1 ICntrl=     0 DoSepK=T KAlg= 1 I1Cent= 0 FoldK=F
 End of Minotr Frequency-dependent properties file   721 does not exist.
 End of Minotr Frequency-dependent properties file   722 does not exist.
 Calling FoFJK, ICntrl=      5127 FMM=F ISym2X=0 I1Cent= 0 IOpClX= 0 NMat=1 NMatS=1 NMatT=0.
 FoFJK:  IHMeth= 1 ICntrl=  5127 DoSepK=T KAlg= 1 I1Cent= 0 FoldK=F
 -------------------------------------------------------------------
 Center     Atomic                   Forces (Hartrees/Bohr)
 Number     Number              X              Y              Z
 -------------------------------------------------------------------
      1        6           0.012069353   -0.004258556   -0.004091047
      2        7          -0.006660335    0.009246643    0.002524920
      3        8          -0.011450085   -0.010191874   -0.000037778
      4        1          -0.000836109   -0.003043255   -0.000011019
      5        1           0.002189843    0.000447001   -0.001002177
      6        1           0.004687333    0.007800041    0.002617101
 -------------------------------------------------------------------
 Cartesian Forces:  Max     0.012069353 RMS     0.006043262

 GradGradGradGradGradGradGradGradGradGradGradGradGradGradGradGradGradGrad
 Berny optimization.
 Using GEDIIS/GDIIS optimizer.
 Internal  Forces:  Max     0.015086138 RMS     0.005354688
 Search for a local minimum.
 Step number  21 out of a maximum of   25
 All quantities printed in internal units (Hartrees-Bohrs-Radians)
 Mixed Optimization -- RFO/linear search
 Update second derivatives using D2CorX and points    6    7    8   10   11
                                                     12   13   14   15   16
                                                     17    9   19   18   21
                                                     20
 DE=  5.63D-04 DEPred=-2.31D-04 R=-2.44D+00
 Trust test=-2.44D+00 RLast= 1.05D-01 DXMaxT set to 5.30D-02
 The second derivative matrix:
                          R1        R2        R3        R4        R5
           R1           0.60766
           R2           0.44471   0.61964
           R3           0.07349   0.13441   0.19110
           R4          -0.08949   0.01315  -0.00834   0.39998
           R5          -0.10105  -0.05519   0.00422  -0.08355   0.17987
           A1           0.03308   0.03040  -0.03049  -0.03290  -0.03042
           A2          -0.01851  -0.07381   0.01346   0.03764   0.02642
           A3          -0.01273   0.05078   0.01816  -0.00141   0.00854
           A4          -0.00987  -0.03606  -0.00670  -0.01195  -0.01776
           A5           0.02662   0.04580   0.02184  -0.00692  -0.00170
           A6           0.02441   0.03307  -0.03868   0.00374   0.01899
           D1          -0.04258  -0.01497   0.00736   0.00644   0.02049
           D2          -0.05591  -0.01598   0.00563   0.01631   0.02320
           D3           0.03914  -0.00719  -0.00881   0.00011  -0.01297
           D4           0.02581  -0.00820  -0.01053   0.00998  -0.01026
                          A1        A2        A3        A4        A5
           A1           0.03250
           A2          -0.03283   0.08566
           A3           0.01547  -0.04392   0.04165
           A4          -0.01839   0.00903  -0.02326   0.07038
           A5          -0.01495  -0.01855   0.00369   0.06217   0.08556
           A6          -0.01212  -0.00518  -0.01639   0.00125  -0.01412
           D1          -0.00886   0.01005  -0.00095   0.00172  -0.00464
           D2          -0.00686   0.00383   0.00490  -0.00365  -0.00222
           D3           0.00405  -0.00623   0.00078   0.00062   0.00109
           D4           0.00605  -0.01244   0.00664  -0.00475   0.00351
                          A6        D1        D2        D3        D4
           A6           0.13778
           D1           0.00174   0.03600
           D2          -0.00212   0.00445   0.01815
           D3          -0.00347  -0.00309   0.00392   0.02722
           D4          -0.00733  -0.00308  -0.01394   0.00268   0.02338
 Use linear search instead of GDIIS.
 Quartic linear search produced a step of -0.84419.
 Iteration  1 RMS(Cart)=  0.02426929 RMS(Int)=  0.00033945
 Iteration  2 RMS(Cart)=  0.00036603 RMS(Int)=  0.00002797
 Iteration  3 RMS(Cart)=  0.00000006 RMS(Int)=  0.00002797
 Variable       Old X    -DE/DX   Delta X   Delta X   Delta X     New X
                                 (Linear)    (Quad)   (Total)
    R1        2.54245  -0.00765  -0.02460   0.00000  -0.02460   2.51785
    R2        2.30938   0.01509   0.03615   0.00000   0.03615   2.34552
    R3        2.03141   0.00740   0.01547   0.00000   0.01547   2.04689
    R4        1.93342   0.00296  -0.00308   0.00000  -0.00308   1.93035
    R5        1.97496   0.00220  -0.00379   0.00000  -0.00379   1.97117
    A1        2.09849   0.00045   0.02126   0.00000   0.02128   2.11977
    A2        2.07751  -0.00520  -0.03576   0.00000  -0.03575   2.04177
    A3        2.09529   0.00522   0.01776   0.00000   0.01777   2.11306
    A4        2.09933  -0.00193  -0.00414   0.00000  -0.00408   2.09525
    A5        2.07495   0.00167   0.00956   0.00000   0.00962   2.08456
    A6        2.06393   0.00013   0.00675   0.00000   0.00682   2.07074
    D1       -0.01331   0.00162   0.00074   0.00000   0.00074  -0.01257
    D2        2.80515   0.00121   0.04864   0.00000   0.04863   2.85378
    D3       -2.98992  -0.00209  -0.02522   0.00000  -0.02521  -3.01513
    D4       -0.17146  -0.00250   0.02268   0.00000   0.02267  -0.14878
         Item               Value     Threshold  Converged?
 Maximum Force            0.015086     0.000450     NO 
 RMS     Force            0.005355     0.000300     NO 
 Maximum Displacement     0.055973     0.001800     NO 
 RMS     Displacement     0.024354     0.001200     NO 
 Predicted change in Energy=-4.712847D-05
 GradGradGradGradGradGradGradGradGradGradGradGradGradGradGradGradGradGrad

                          Input orientation:                          
 ---------------------------------------------------------------------
 Center     Atomic      Atomic             Coordinates (Angstroms)
 Number     Number       Type             X           Y           Z
 ---------------------------------------------------------------------
      1          6           0       -0.137149    0.411394    0.052717
      2          7           0        1.066356   -0.159730    0.078226
      3          8           0       -1.171855   -0.263427   -0.067996
      4          1           0        1.152206   -1.175229    0.008624
      5          1           0        1.915104    0.425812   -0.079313
      6          1           0       -0.166939    1.493228    0.008060
 ---------------------------------------------------------------------
                    Distance matrix (angstroms):
                    1          2          3          4          5
     1  C    0.000000
     2  N    1.332388   0.000000
     3  O    1.241197   2.245378   0.000000
     4  H    2.044933   1.021496   2.497701   0.000000
     5  H    2.056547   1.043097   3.162988   1.775691   0.000000
     6  H    1.083165   2.063543   2.025210   2.976711   2.341349
                    6
     6  H    0.000000
 Symmetry turned off by external request.
 Stoichiometry    CH3NO
 Framework group  C1[X(CH3NO)]
 Deg. of freedom    12
 Full point group                 C1      NOp   1
 Rotational constants (GHZ):     68.7505996     11.6865412     10.0134939
 Standard basis: Aug-CC-pVTZ (5D, 7F)
 Integral buffers will be    131072 words long.
 Raffenetti 2 integral format.
 Two-electron integral symmetry is turned off.
   207 basis functions,   297 primitive gaussians,   240 cartesian basis functions
    12 alpha electrons       12 beta electrons
       nuclear repulsion energy        71.1690696802 Hartrees.
 NAtoms=    6 NActive=    6 NUniq=    6 SFac= 7.50D-01 NAtFMM=   80 NAOKFM=F Big=F
 Standard density basis: Auto (5D, 7F)
   591 Density fitting functions
 One-electron integrals computed using PRISM.
 NBasis=   207 RedAO= T  NBF=   207
 NBsUse=   207 1.00D-06 NBFU=   207
 Initial guess read from the read-write file.
 B after Tr=     0.000000    0.000000    0.000000
         Rot=    1.000000    0.000000    0.000000    0.000000 Ang=   0.00 deg.
 Harris functional with IExCor=20419 diagonalized for initial guess.
 ExpMin= 2.53D-02 ExpMax= 1.53D+04 ExpMxC= 5.22D+02 IAcc=3 IRadAn=         0 AccDes= 0.00D+00
 HarFok:  IExCor=20419 AccDes= 0.00D+00 IRadAn=         0 IDoV= 1
 ScaDFX=  1.000000  1.000000  1.000000  1.000000
 FoFCou: FMM=F IPFlag=           0 FMFlag=      100000 FMFlg1=           0
         NFxFlg=           0 DoJE=T BraDBF=F KetDBF=T FulRan=T
         Omega=  0.000000  0.000000  1.000000  0.000000  0.000000 ICntrl=     500 IOpCl=  0
         NMat0=    1 NMatS0=    1 NMatT0=    0 NMatD0=    1 NMtDS0=    0 NMtDT0=    0
         I1Cent=           4 NGrid=           0.
 Symmetry not used in FoFCou.
 Requested convergence on RMS density matrix=1.00D-08 within 128 cycles.
 Requested convergence on MAX density matrix=1.00D-06.
 Requested convergence on             energy=1.00D-06.
 No special actions if energy rises.
 FoFJK:  IHMeth= 1 ICntrl=     0 DoSepK=T KAlg= 1 I1Cent= 0 FoldK=F
 FoFJK:  IHMeth= 1 ICntrl=     0 DoSepK=T KAlg= 1 I1Cent= 0 FoldK=F
 FoFJK:  IHMeth= 1 ICntrl=     0 DoSepK=T KAlg= 1 I1Cent= 0 FoldK=F
 FoFJK:  IHMeth= 1 ICntrl=     0 DoSepK=T KAlg= 1 I1Cent= 0 FoldK=F
 FoFJK:  IHMeth= 1 ICntrl=     0 DoSepK=T KAlg= 1 I1Cent= 0 FoldK=F
 FoFJK:  IHMeth= 1 ICntrl=     0 DoSepK=T KAlg= 1 I1Cent= 0 FoldK=F
 FoFJK:  IHMeth= 1 ICntrl=     0 DoSepK=T KAlg= 1 I1Cent= 0 FoldK=F
 FoFJK:  IHMeth= 1 ICntrl=     0 DoSepK=T KAlg= 1 I1Cent= 0 FoldK=F
 FoFJK:  IHMeth= 1 ICntrl=     0 DoSepK=T KAlg= 1 I1Cent= 0 FoldK=F
 FoFJK:  IHMeth= 1 ICntrl=     0 DoSepK=T KAlg= 1 I1Cent= 0 FoldK=F
 SCF Done:  E(RCAM-B3LYP) =  -169.892246066     A.U. after   10 cycles
             Convg  =    0.4643D-08             -V/T =  2.0063
 ExpMin= 2.53D-02 ExpMax= 1.53D+04 ExpMxC= 5.22D+02 IAcc=3 IRadAn=         5 AccDes= 0.00D+00
 HarFok:  IExCor=  205 AccDes= 0.00D+00 IRadAn=         5 IDoV=-2
 ScaDFX=  1.000000  1.000000  1.000000  1.000000
 Range of M.O.s used for correlation:     4   207
 NBasis=   207 NAE=    12 NBE=    12 NFC=     3 NFV=     0
 NROrb=    204 NOA=     9 NOB=     9 NVA=   195 NVB=   195

 **** Warning!!: The largest alpha MO coefficient is  0.35494794D+02

 Would need an additional   518800000 words for in-memory AO integral storage.
 Generating guess from densities on rwf.
 Convergence on wavefunction:    0.000001000000000
 Iteration     1 Dimension    40 NMult    40
 CISAX will form    40 AO SS matrices at one time.
 FoFJK:  IHMeth= 1 ICntrl=     0 DoSepK=T KAlg= 1 I1Cent= 0 FoldK=F
 FoFJK:  IHMeth= 1 ICntrl=     0 DoSepK=T KAlg= 1 I1Cent= 0 FoldK=F
 New state      2 was old state      3
 New state      3 was old state      2
 Iteration     2 Dimension    80 NMult    80
 FoFJK:  IHMeth= 1 ICntrl=     0 DoSepK=T KAlg= 1 I1Cent= 0 FoldK=F
 FoFJK:  IHMeth= 1 ICntrl=     0 DoSepK=T KAlg= 1 I1Cent= 0 FoldK=F
 Iteration     3 Dimension   120 NMult   120
 FoFJK:  IHMeth= 1 ICntrl=     0 DoSepK=T KAlg= 1 I1Cent= 0 FoldK=F
 FoFJK:  IHMeth= 1 ICntrl=     0 DoSepK=T KAlg= 1 I1Cent= 0 FoldK=F
 Iteration     4 Dimension   160 NMult   160
 FoFJK:  IHMeth= 1 ICntrl=     0 DoSepK=T KAlg= 1 I1Cent= 0 FoldK=F
 FoFJK:  IHMeth= 1 ICntrl=     0 DoSepK=T KAlg= 1 I1Cent= 0 FoldK=F
 Iteration     5 Dimension   200 NMult   200
 FoFJK:  IHMeth= 1 ICntrl=     0 DoSepK=T KAlg= 1 I1Cent= 0 FoldK=F
 FoFJK:  IHMeth= 1 ICntrl=     0 DoSepK=T KAlg= 1 I1Cent= 0 FoldK=F
 Iteration     6 Dimension   240 NMult   240
 FoFJK:  IHMeth= 1 ICntrl=     0 DoSepK=T KAlg= 1 I1Cent= 0 FoldK=F
 FoFJK:  IHMeth= 1 ICntrl=     0 DoSepK=T KAlg= 1 I1Cent= 0 FoldK=F
 Iteration     7 Dimension   272 NMult   272
 FoFJK:  IHMeth= 1 ICntrl=     0 DoSepK=T KAlg= 1 I1Cent= 0 FoldK=F
