 Entering Gaussian System, Link 0=g09
 Input=td6-opt.com
 Output=td6-opt.log
 Initial command:
 /home/diegoa/progs/g09/l1.exe /home/diegoa/g09scratch/Gau-16391.inp -scrdir=/home/diegoa/g09scratch/
 Default is to use a total of   4 processors:
                                4 via shared-memory
                                1 via Linda
 Entering Link 1 = /home/diegoa/progs/g09/l1.exe PID=     16393.
  
 Copyright (c) 1988,1990,1992,1993,1995,1998,2003,2009, Gaussian, Inc.
                  All Rights Reserved.
  
 This is part of the Gaussian(R) 09 program.  It is based on
 the Gaussian(R) 03 system (copyright 2003, Gaussian, Inc.),
 the Gaussian(R) 98 system (copyright 1998, Gaussian, Inc.),
 the Gaussian(R) 94 system (copyright 1995, Gaussian, Inc.),
 the Gaussian 92(TM) system (copyright 1992, Gaussian, Inc.),
 the Gaussian 90(TM) system (copyright 1990, Gaussian, Inc.),
 the Gaussian 88(TM) system (copyright 1988, Gaussian, Inc.),
 the Gaussian 86(TM) system (copyright 1986, Carnegie Mellon
 University), and the Gaussian 82(TM) system (copyright 1983,
 Carnegie Mellon University). Gaussian is a federally registered
 trademark of Gaussian, Inc.
  
 This software contains proprietary and confidential information,
 including trade secrets, belonging to Gaussian, Inc.
  
 This software is provided under written license and may be
 used, copied, transmitted, or stored only in accord with that
 written license.
  
 The following legend is applicable only to US Government
 contracts under FAR:
  
                    RESTRICTED RIGHTS LEGEND
  
 Use, reproduction and disclosure by the US Government is
 subject to restrictions as set forth in subparagraphs (a)
 and (c) of the Commercial Computer Software - Restricted
 Rights clause in FAR 52.227-19.
  
 Gaussian, Inc.
 340 Quinnipiac St., Bldg. 40, Wallingford CT 06492
  
  
 ---------------------------------------------------------------
 Warning -- This program may not be used in any manner that
 competes with the business of Gaussian, Inc. or will provide
 assistance to any competitor of Gaussian, Inc.  The licensee
 of this program is prohibited from giving any competitor of
 Gaussian, Inc. access to this program.  By using this program,
 the user acknowledges that Gaussian, Inc. is engaged in the
 business of creating and licensing software in the field of
 computational chemistry and represents and warrants to the
 licensee that it is not a competitor of Gaussian, Inc. and that
 it will not use this program in any manner prohibited above.
 ---------------------------------------------------------------
  

 Cite this work as:
 Gaussian 09, Revision A.01,
 M. J. Frisch, G. W. Trucks, H. B. Schlegel, G. E. Scuseria, 
 M. A. Robb, J. R. Cheeseman, G. Scalmani, V. Barone, B. Mennucci, 
 G. A. Petersson, H. Nakatsuji, M. Caricato, X. Li, H. P. Hratchian, 
 A. F. Izmaylov, J. Bloino, G. Zheng, J. L. Sonnenberg, M. Hada, 
 M. Ehara, K. Toyota, R. Fukuda, J. Hasegawa, M. Ishida, T. Nakajima, 
 Y. Honda, O. Kitao, H. Nakai, T. Vreven, J. A. Montgomery, Jr., 
 J. E. Peralta, F. Ogliaro, M. Bearpark, J. J. Heyd, E. Brothers, 
 K. N. Kudin, V. N. Staroverov, R. Kobayashi, J. Normand, 
 K. Raghavachari, A. Rendell, J. C. Burant, S. S. Iyengar, J. Tomasi, 
 M. Cossi, N. Rega, J. M. Millam, M. Klene, J. E. Knox, J. B. Cross, 
 V. Bakken, C. Adamo, J. Jaramillo, R. Gomperts, R. E. Stratmann, 
 O. Yazyev, A. J. Austin, R. Cammi, C. Pomelli, J. W. Ochterski, 
 R. L. Martin, K. Morokuma, V. G. Zakrzewski, G. A. Voth, 
 P. Salvador, J. J. Dannenberg, S. Dapprich, A. D. Daniels, 
 O. Farkas, J. B. Foresman, J. V. Ortiz, J. Cioslowski, 
 and D. J. Fox, Gaussian, Inc., Wallingford CT, 2009.
 
 ******************************************
 Gaussian 09:  EM64L-G09RevA.01  8-May-2009
                27-Oct-2019 
 ******************************************
 %chk=td6-opt.chk
 %NProcShared=4
 Will use up to    4 processors via shared memory.
 Default route:  MP2=Direct MaxDisk=1000GB DenFit
 ----------------------------------------------------------------------
 # cam-b3lyp/aug-cc-pvtz opt nosymm td(root=6,nstates=20) int(grid=ultr
 afine)
 ----------------------------------------------------------------------
 1/14=-1,18=20,19=15,26=3,38=1/1,3;
 2/9=110,12=2,15=1,17=6,18=5,40=1/2;
 3/5=16,6=1,7=10,11=2,16=1,25=1,30=1,71=1,74=-40,75=-5,82=47/1,2,8,3;
 4//1;
 5/5=2,38=5/2;
 8/6=1,10=1,107=6,108=20/1;
 9/8=6,15=2,41=20,42=1/14;
 10/5=4,31=1/2;
 6/7=2,8=2,9=2,10=2/1;
 7/12=6,13=5,14=6,30=1/1,2,3,16;
 1/14=-1,18=20,19=15/3(2);
 2/9=110,15=1/2;
 99//99;
 2/9=110,15=1/2;
 3/5=16,6=1,7=10,11=2,16=1,25=1,30=1,71=1,74=-40,75=-5,82=47/1,2,8,3;
 4/5=5,16=3/1;
 5/5=2,38=5/2;
 8/6=1,10=1,107=6,108=20/1;
 9/8=6,15=2,41=20,42=1,49=4/14;
 10/5=4,31=1/2;
 7/12=6,13=5,14=6,30=1/1,2,3,16;
 1/14=-1,18=20,19=15/3(-8);
 2/9=110,15=1/2;
 6/7=2,8=2,9=2,10=2/1;
 99//99;
 -----
 Title
 -----
 Symbolic Z-matrix:
 Charge =  0 Multiplicity = 1
 6                    -0.0866    0.39185  -0.00017 
 7                     1.06876  -0.17594   0.0001 
 8                    -1.1854   -0.20114  -0.00005 
 1                     1.21188  -1.21977   0.00028 
 1                     1.8937    0.40833   0.00027 
 1                    -0.24463   1.52871  -0.0001 
 

 GradGradGradGradGradGradGradGradGradGradGradGradGradGradGradGradGradGrad
 Berny optimization.
 Initialization pass.
                           ----------------------------
                           !    Initial Parameters    !
                           ! (Angstroms and Degrees)  !
 --------------------------                            --------------------------
 ! Name  Definition              Value          Derivative Info.                !
 --------------------------------------------------------------------------------
 ! R1    R(1,2)                  1.2873         estimate D2E/DX2                !
 ! R2    R(1,3)                  1.2486         estimate D2E/DX2                !
 ! R3    R(1,6)                  1.1478         estimate D2E/DX2                !
 ! R4    R(2,4)                  1.0536         estimate D2E/DX2                !
 ! R5    R(2,5)                  1.0109         estimate D2E/DX2                !
 ! A1    A(2,1,3)              125.474          estimate D2E/DX2                !
 ! A2    A(2,1,6)              124.0848         estimate D2E/DX2                !
 ! A3    A(3,1,6)              110.4413         estimate D2E/DX2                !
 ! A4    A(1,2,4)              123.9789         estimate D2E/DX2                !
 ! A5    A(1,2,5)              118.5205         estimate D2E/DX2                !
 ! A6    A(4,2,5)              117.5006         estimate D2E/DX2                !
 ! D1    D(3,1,2,4)              0.011          estimate D2E/DX2                !
 ! D2    D(3,1,2,5)           -179.9801         estimate D2E/DX2                !
 ! D3    D(6,1,2,4)            179.9834         estimate D2E/DX2                !
 ! D4    D(6,1,2,5)             -0.0077         estimate D2E/DX2                !
 --------------------------------------------------------------------------------
 Trust Radius=3.00D-01 FncErr=1.00D-07 GrdErr=1.00D-06
 Number of steps in this run=  25 maximum allowed number of steps= 100.
 GradGradGradGradGradGradGradGradGradGradGradGradGradGradGradGradGradGrad

                          Input orientation:                          
 ---------------------------------------------------------------------
 Center     Atomic      Atomic             Coordinates (Angstroms)
 Number     Number       Type             X           Y           Z
 ---------------------------------------------------------------------
      1          6           0       -0.086600    0.391851   -0.000173
      2          7           0        1.068757   -0.175937    0.000095
      3          8           0       -1.185396   -0.201144   -0.000054
      4          1           0        1.211884   -1.219767    0.000282
      5          1           0        1.893701    0.408332    0.000269
      6          1           0       -0.244625    1.528714   -0.000101
 ---------------------------------------------------------------------
                    Distance matrix (angstroms):
                    1          2          3          4          5
     1  C    0.000000
     2  N    1.287336   0.000000
     3  O    1.248598   2.254294   0.000000
     4  H    2.069631   1.053597   2.604716   0.000000
     5  H    1.980370   1.010892   3.138837   1.765101   0.000000
     6  H    1.147793   2.151931   1.969126   3.110557   2.414062
                    6
     6  H    0.000000
 Symmetry turned off by external request.
 Stoichiometry    CH3NO
 Framework group  C1[X(CH3NO)]
 Deg. of freedom    12
 Full point group                 C1      NOp   1
 Rotational constants (GHZ):     72.8047563     11.5872245      9.9962704
 Standard basis: Aug-CC-pVTZ (5D, 7F)
 Integral buffers will be    131072 words long.
 Raffenetti 2 integral format.
 Two-electron integral symmetry is turned off.
   207 basis functions,   297 primitive gaussians,   240 cartesian basis functions
    12 alpha electrons       12 beta electrons
       nuclear repulsion energy        71.3716055205 Hartrees.
 NAtoms=    6 NActive=    6 NUniq=    6 SFac= 7.50D-01 NAtFMM=   80 NAOKFM=F Big=F
 Standard density basis: Auto (5D, 7F)
   591 Density fitting functions
 One-electron integrals computed using PRISM.
 NBasis=   207 RedAO= T  NBF=   207
 NBsUse=   207 1.00D-06 NBFU=   207
 Harris functional with IExCor=20419 diagonalized for initial guess.
 ExpMin= 2.53D-02 ExpMax= 1.53D+04 ExpMxC= 5.22D+02 IAcc=3 IRadAn=         5 AccDes= 0.00D+00
 HarFok:  IExCor=20419 AccDes= 0.00D+00 IRadAn=         5 IDoV= 1
 ScaDFX=  1.000000  1.000000  1.000000  1.000000
 FoFCou: FMM=F IPFlag=           0 FMFlag=      100000 FMFlg1=           0
         NFxFlg=           0 DoJE=T BraDBF=F KetDBF=T FulRan=T
         Omega=  0.000000  0.000000  1.000000  0.000000  0.000000 ICntrl=     500 IOpCl=  0
         NMat0=    1 NMatS0=    1 NMatT0=    0 NMatD0=    1 NMtDS0=    0 NMtDT0=    0
         I1Cent=           4 NGrid=           0.
 Symmetry not used in FoFCou.
 Requested convergence on RMS density matrix=1.00D-08 within 128 cycles.
 Requested convergence on MAX density matrix=1.00D-06.
 Requested convergence on             energy=1.00D-06.
 No special actions if energy rises.
 FoFJK:  IHMeth= 1 ICntrl=     0 DoSepK=T KAlg= 1 I1Cent= 0 FoldK=F
 FoFJK:  IHMeth= 1 ICntrl=     0 DoSepK=T KAlg= 1 I1Cent= 0 FoldK=F
 FoFJK:  IHMeth= 1 ICntrl=     0 DoSepK=T KAlg= 1 I1Cent= 0 FoldK=F
 FoFJK:  IHMeth= 1 ICntrl=     0 DoSepK=T KAlg= 1 I1Cent= 0 FoldK=F
 FoFJK:  IHMeth= 1 ICntrl=     0 DoSepK=T KAlg= 1 I1Cent= 0 FoldK=F
 FoFJK:  IHMeth= 1 ICntrl=     0 DoSepK=T KAlg= 1 I1Cent= 0 FoldK=F
 FoFJK:  IHMeth= 1 ICntrl=     0 DoSepK=T KAlg= 1 I1Cent= 0 FoldK=F
 FoFJK:  IHMeth= 1 ICntrl=     0 DoSepK=T KAlg= 1 I1Cent= 0 FoldK=F
 FoFJK:  IHMeth= 1 ICntrl=     0 DoSepK=T KAlg= 1 I1Cent= 0 FoldK=F
 FoFJK:  IHMeth= 1 ICntrl=     0 DoSepK=T KAlg= 1 I1Cent= 0 FoldK=F
 FoFJK:  IHMeth= 1 ICntrl=     0 DoSepK=T KAlg= 1 I1Cent= 0 FoldK=F
 SCF Done:  E(RCAM-B3LYP) =  -169.883822847     A.U. after   11 cycles
             Convg  =    0.3498D-08             -V/T =  2.0062
 ExpMin= 2.53D-02 ExpMax= 1.53D+04 ExpMxC= 5.22D+02 IAcc=3 IRadAn=         5 AccDes= 0.00D+00
 HarFok:  IExCor=  205 AccDes= 0.00D+00 IRadAn=         5 IDoV=-2
 ScaDFX=  1.000000  1.000000  1.000000  1.000000
 Range of M.O.s used for correlation:     4   207
 NBasis=   207 NAE=    12 NBE=    12 NFC=     3 NFV=     0
 NROrb=    204 NOA=     9 NOB=     9 NVA=   195 NVB=   195

 **** Warning!!: The largest alpha MO coefficient is  0.41758648D+02

 Would need an additional   658600000 words for in-memory AO integral storage.
    80 initial guesses have been made.
 Convergence on wavefunction:    0.000001000000000
 Iteration     1 Dimension    80 NMult    80
 CISAX will form    80 AO SS matrices at one time.
 FoFJK:  IHMeth= 1 ICntrl=     0 DoSepK=T KAlg= 1 I1Cent= 0 FoldK=F
 FoFJK:  IHMeth= 1 ICntrl=     0 DoSepK=T KAlg= 1 I1Cent= 0 FoldK=F
 New state      1 was old state      6
 New state      2 was old state      1
 New state      4 was old state      2
 New state      6 was old state      4
 New state      7 was old state      8
 New state      8 was old state      7
 New state      9 was old state     12
 New state     10 was old state     11
 New state     11 was old state      9
 New state     12 was old state     10
 New state     13 was old state     16
 New state     14 was old state     15
 New state     15 was old state     13
 New state     16 was old state     14
 New state     19 was old state     20
 New state     20 was old state     19
 Iteration     2 Dimension   120 NMult   120
 FoFJK:  IHMeth= 1 ICntrl=     0 DoSepK=T KAlg= 1 I1Cent= 0 FoldK=F
 FoFJK:  IHMeth= 1 ICntrl=     0 DoSepK=T KAlg= 1 I1Cent= 0 FoldK=F
 New state      8 was old state      9
 New state      9 was old state      8
 New state     15 was old state     16
 New state     16 was old state     15
 New state     18 was old state     19
 New state     19 was old state     18
 Iteration     3 Dimension   160 NMult   160
 FoFJK:  IHMeth= 1 ICntrl=     0 DoSepK=T KAlg= 1 I1Cent= 0 FoldK=F
 FoFJK:  IHMeth= 1 ICntrl=     0 DoSepK=T KAlg= 1 I1Cent= 0 FoldK=F
 Iteration     4 Dimension   200 NMult   200
 FoFJK:  IHMeth= 1 ICntrl=     0 DoSepK=T KAlg= 1 I1Cent= 0 FoldK=F
 FoFJK:  IHMeth= 1 ICntrl=     0 DoSepK=T KAlg= 1 I1Cent= 0 FoldK=F
 Iteration     5 Dimension   240 NMult   240
 FoFJK:  IHMeth= 1 ICntrl=     0 DoSepK=T KAlg= 1 I1Cent= 0 FoldK=F
 FoFJK:  IHMeth= 1 ICntrl=     0 DoSepK=T KAlg= 1 I1Cent= 0 FoldK=F
 Iteration     6 Dimension   280 NMult   280
 FoFJK:  IHMeth= 1 ICntrl=     0 DoSepK=T KAlg= 1 I1Cent= 0 FoldK=F
 FoFJK:  IHMeth= 1 ICntrl=     0 DoSepK=T KAlg= 1 I1Cent= 0 FoldK=F
 Iteration     7 Dimension   312 NMult   312
 FoFJK:  IHMeth= 1 ICntrl=     0 DoSepK=T KAlg= 1 I1Cent= 0 FoldK=F
 FoFJK:  IHMeth= 1 ICntrl=     0 DoSepK=T KAlg= 1 I1Cent= 0 FoldK=F
 Davidson failed to converge within maximum sub-space dimensions.
  Restart with updated initial guess:
 Iteration     1 Dimension    52 NMult   364
 FoFJK:  IHMeth= 1 ICntrl=     0 DoSepK=T KAlg= 1 I1Cent= 0 FoldK=F
 FoFJK:  IHMeth= 1 ICntrl=     0 DoSepK=T KAlg= 1 I1Cent= 0 FoldK=F
 Iteration     2 Dimension    92 NMult   404
 FoFJK:  IHMeth= 1 ICntrl=     0 DoSepK=T KAlg= 1 I1Cent= 0 FoldK=F
 FoFJK:  IHMeth= 1 ICntrl=     0 DoSepK=T KAlg= 1 I1Cent= 0 FoldK=F
 ***********************************************************************
 Excited states from <AA,BB:AA,BB> singles matrix:
 ***********************************************************************
 
 Ground to excited state transition electric dipole moments (Au):
       state          X           Y           Z        Dip. S.      Osc.
         1         0.0000      0.0001      0.0729      0.0053      0.0007
         2        -0.2252     -0.0080      0.0000      0.0508      0.0078
         3        -0.0002     -0.0003     -0.2337      0.0546      0.0088
         4         0.0947      0.6106     -0.0001      0.3818      0.0621
         5        -0.0002      0.0000     -0.0510      0.0026      0.0005
         6         0.0020      0.3826      0.0000      0.1464      0.0260
         7        -0.0003      0.0000      0.2400      0.0576      0.0107
         8        -1.1425      0.0408      0.0000      1.3069      0.2459
         9         0.0002      0.0001      0.2498      0.0624      0.0122
        10        -0.1297     -0.2926      0.0000      0.1025      0.0205
        11         0.2431     -0.0387      0.0000      0.0606      0.0123
        12        -0.1697      0.0075      0.0001      0.0289      0.0060
        13        -0.0001      0.0000     -0.1830      0.0335      0.0073
        14         0.0000      0.0000     -0.1016      0.0103      0.0023
        15        -0.4012     -0.1378      0.0000      0.1800      0.0395
        16         0.2376     -0.2183      0.0001      0.1041      0.0229
        17         0.0002      0.0000      0.0995      0.0099      0.0023
        18        -0.2492     -0.0071     -0.0001      0.0621      0.0142
        19         0.0004      0.0000     -0.0597      0.0036      0.0008
        20         0.0004      0.0001     -0.0083      0.0001      0.0000
 Ground to excited state transition velocity dipole moments (Au):
       state          X           Y           Z        Dip. S.      Osc.
         1         0.0000      0.0000     -0.0152      0.0002      0.0008
         2         0.0521      0.0015      0.0000      0.0027      0.0079
         3         0.0000      0.0001      0.0567      0.0032      0.0089
         4        -0.0230     -0.1488      0.0000      0.0227      0.0619
         5         0.0001      0.0000      0.0139      0.0002      0.0005
         6        -0.0004     -0.1022      0.0000      0.0105      0.0262
         7         0.0001      0.0000     -0.0660      0.0044      0.0104
         8         0.3208     -0.0116      0.0000      0.1030      0.2434
         9        -0.0001      0.0000     -0.0732      0.0054      0.0122
        10         0.0390      0.0874      0.0000      0.0092      0.0204
        11        -0.0725      0.0122      0.0000      0.0054      0.0118
        12         0.0562     -0.0012      0.0000      0.0032      0.0068
        13         0.0000      0.0000      0.0604      0.0036      0.0075
        14         0.0000      0.0000      0.0339      0.0011      0.0023
        15         0.1326      0.0440      0.0000      0.0195      0.0395
        16        -0.0789      0.0721      0.0000      0.0114      0.0230
        17        -0.0001      0.0000     -0.0317      0.0010      0.0020
        18         0.0829      0.0043      0.0000      0.0069      0.0134
        19        -0.0001      0.0000      0.0182      0.0003      0.0006
        20        -0.0002      0.0000      0.0047      0.0000      0.0000
 Ground to excited state transition magnetic dipole moments (Au):
       state          X           Y           Z
         1        -0.9770     -0.2762      0.0000
         2         0.0002      0.0002      0.2092
         3        -0.0386     -0.3772      0.0001
         4         0.0001     -0.0001     -0.1943
         5        -0.0583      0.0187     -0.0003
         6         0.0000      0.0001      0.4025
         7        -0.0822      0.0942     -0.0002
         8        -0.0001     -0.0002     -0.5339
         9        -0.0071     -0.3635      0.0002
        10        -0.0001     -0.0001     -0.1841
        11        -0.0001      0.0000      0.0577
        12         0.0000     -0.0001     -0.4942
        13        -0.0747      0.4223     -0.0004
        14        -0.1101     -0.4344      0.0002
        15         0.0000      0.0003      0.1257
        16         0.0000      0.0000      0.0798
        17        -0.0528     -0.0823      0.0002
        18        -0.0006      0.0003     -0.1878
        19        -0.2144      0.1769      0.0002
        20        -0.7446      0.7629      0.0001
 <0|del|b> * <b|rxdel|0> + <0|del|b> * <b|delr+rdel|0>
 Rotatory Strengths (R) in cgs (10**-40 erg-esu-cm/Gauss)
       state          XX          YY          ZZ    R(velocity)
         1         0.0121     -0.0128      0.0036      0.0009
 Total R(velocity) tensor for State=          1
                 1             2             3 
      1   0.120535D-01  0.383520D-02 -0.182107D-05
      2  -0.541827D-01 -0.128268D-01  0.000000D+00
      3  -0.228689D+02 -0.735017D+01  0.358975D-02
         2         0.0002      0.0235      0.0150      0.0129
 Total R(velocity) tensor for State=          2
                 1             2             3 
      1   0.164913D-03 -0.258403D-01 -0.290047D+02
      2  -0.129991D-02  0.235262D-01 -0.298835D+02
      3  -0.237093D+00  0.808948D+01  0.149821D-01
         3        -0.0443     -0.0052     -0.0026     -0.0174
 Total R(velocity) tensor for State=          3
                 1             2             3 
      1  -0.443412D-01  0.619398D-01 -0.350420D-04
      2   0.292902D-01 -0.521322D-02 -0.152439D-04
      3  -0.170185D+00  0.252749D+01 -0.259674D-02
         4         0.0489     -0.0069     -0.0130      0.0096
 Total R(velocity) tensor for State=          4
                 1             2             3 
      1   0.488683D-01 -0.216348D-01 -0.598815D+02
      2   0.435317D-02 -0.690672D-02 -0.265355D+02
      3  -0.300634D+00  0.465706D-01 -0.130461D-01
         5        -0.0063     -0.0140      0.0010     -0.0064
 Total R(velocity) tensor for State=          5
                 1             2             3 
      1  -0.629767D-02 -0.784178D-02  0.238730D-04
      2  -0.295405D-02 -0.139681D-01  0.682384D-05
      3  -0.176547D+00  0.520045D+00  0.983780D-03
         6        -0.0207      0.0042     -0.0015     -0.0060
 Total R(velocity) tensor for State=          6
                 1             2             3 
      1  -0.207047D-01  0.399458D-02  0.491135D+02
      2  -0.103918D-02  0.418547D-02  0.525305D+02
      3   0.823868D+01 -0.339697D-01 -0.149023D-02
         7         0.0188     -0.0029     -0.0027      0.0044
 Total R(velocity) tensor for State=          7
                 1             2             3 
      1   0.187746D-01 -0.118950D-01  0.183631D-04
      2  -0.422227D-05 -0.285421D-02  0.000000D+00
      3  -0.238414D+01 -0.160661D+01 -0.269890D-02
         8        -0.0034     -0.0498     -0.0309     -0.0280
 Total R(velocity) tensor for State=          8
                 1             2             3 
      1  -0.337950D-02  0.115411D+00  0.331861D+03
      2  -0.200149D-02 -0.497580D-01  0.900560D+01
      3   0.156446D+01  0.433265D+02 -0.309225D-01
         9        -0.0125     -0.0044      0.0033     -0.0045
 Total R(velocity) tensor for State=          9
                 1             2             3 
      1  -0.124895D-01 -0.283712D-01  0.170984D-04
      2  -0.220630D-02 -0.436296D-02  0.282577D-05
      3   0.341679D+01 -0.187041D+02  0.326345D-02
        10        -0.0123     -0.0133     -0.0043     -0.0100
 Total R(velocity) tensor for State=         10
                 1             2             3 
      1  -0.122587D-01  0.784653D-02  0.172526D+02
      2   0.200955D-01 -0.132988D-01 -0.314463D+02
      3   0.473883D+01 -0.211425D+01 -0.429709D-02
        11        -0.0012      0.0105      0.0048      0.0047
 Total R(velocity) tensor for State=         11
                 1             2             3 
      1  -0.117666D-02 -0.640667D-02 -0.448351D+01
      2   0.164235D-02  0.104963D-01 -0.556102D+01
      3   0.219978D+01  0.130795D+02  0.481807D-02
        12         0.0137      0.0128     -0.0001      0.0088
 Total R(velocity) tensor for State=         12
                 1             2             3 
      1   0.137254D-01  0.981975D-02  0.363653D+02
      2  -0.220461D-02  0.128283D-01 -0.670107D+01
      3   0.205726D+00  0.927739D+01 -0.797826D-04
        13        -0.0243     -0.0224      0.0019     -0.0149
 Total R(velocity) tensor for State=         13
                 1             2             3 
      1  -0.242844D-01 -0.419378D-01  0.294828D-04
      2   0.452797D-02 -0.223702D-01  0.247130D-05
      3  -0.111223D+01 -0.383483D+01  0.185553D-02
        14         0.0040      0.0038     -0.0080     -0.0001
 Total R(velocity) tensor for State=         14
                 1             2             3 
      1   0.404517D-02  0.117524D-01 -0.531335D-05
      2   0.306483D-02  0.378747D-02 -0.255940D-05
      3   0.844526D+01  0.138420D+02 -0.802840D-02
        15         0.0229     -0.0174      0.0161      0.0072
 Total R(velocity) tensor for State=         15
                 1             2             3 
      1   0.229040D-01 -0.675227D-01 -0.110158D+02
      2   0.733682D-02 -0.173780D-01 -0.335580D+02
      3  -0.144817D+00  0.436789D+00  0.160662D-01
        16        -0.0066      0.0049      0.0002     -0.0005
 Total R(velocity) tensor for State=         16
                 1             2             3 
      1  -0.656597D-02 -0.330067D-02  0.929811D+01
      2  -0.370907D-02  0.491550D-02  0.215122D+02
      3  -0.628560D+01 -0.687131D+01  0.245756D-03
        17         0.0004     -0.0118      0.0092     -0.0007
 Total R(velocity) tensor for State=         17
                 1             2             3 
      1   0.429304D-03  0.638616D-02 -0.372603D-05
      2   0.156248D-01 -0.118095D-01 -0.319184D-04
      3  -0.284727D+01 -0.578959D+01  0.918809D-02
        18         0.0028     -0.0819     -0.0360     -0.0384
 Total R(velocity) tensor for State=         18
                 1             2             3 
      1   0.278958D-02 -0.390750D-01 -0.260691D+01
      2   0.160546D-01 -0.819284D-01 -0.394410D+02
      3   0.659258D+00 -0.128383D+02 -0.360442D-01
        19        -0.0053      0.0342      0.0263      0.0184
 Total R(velocity) tensor for State=         19
                 1             2             3 
      1  -0.528074D-02  0.383632D-01 -0.264018D-05
      2  -0.129319D-01  0.341675D-01 -0.593773D-04
      3   0.390285D+01 -0.827857D+00  0.263144D-01
        20        -0.0321      0.1565      0.0395      0.0547
 Total R(velocity) tensor for State=         20
                 1             2             3 
      1  -0.320525D-01  0.117165D+00  0.230927D-04
      2  -0.454331D-01  0.156510D+00 -0.531041D-04
      3   0.225013D+01 -0.364073D+01  0.395131D-01
 1/2[<0|r|b>*<b|rxdel|0> + (<0|rxdel|b>*<b|r|0>)*]
 Rotatory Strengths (R) in cgs (10**-40 erg-esu-cm/Gauss)
       state          XX          YY          ZZ     R(length)     R(au)
         1        -0.0221      0.0271     -0.0017      0.0011      0.0000
         2         0.0382      0.0011     -0.0009      0.0128      0.0000
         3        -0.0046     -0.0674      0.0196     -0.0175      0.0000
         4        -0.0054      0.0540     -0.0198      0.0096      0.0000
         5        -0.0094     -0.0003     -0.0094     -0.0064      0.0000
         6         0.0000     -0.0266      0.0088     -0.0059      0.0000
         7        -0.0146      0.0019      0.0263      0.0045      0.0000
         8        -0.0806      0.0059     -0.0102     -0.0283     -0.0001
         9         0.0009      0.0191     -0.0337     -0.0046      0.0000
        10        -0.0111     -0.0240      0.0052     -0.0100      0.0000
        11         0.0142      0.0001      0.0001      0.0048      0.0000
        12         0.0026      0.0005      0.0231      0.0087      0.0000
        13        -0.0075      0.0142     -0.0512     -0.0148      0.0000
        14        -0.0038     -0.0106      0.0126     -0.0006      0.0000
        15        -0.0126      0.0336      0.0017      0.0076      0.0000
        16         0.0035      0.0002     -0.0051     -0.0005      0.0000
        17         0.0085      0.0021     -0.0136     -0.0010      0.0000
        18        -0.1116      0.0015     -0.0093     -0.0398     -0.0001
        19         0.0565     -0.0050      0.0067      0.0194      0.0000
        20         0.2287     -0.0643      0.0007      0.0550      0.0001
  1/2[<0|del|b>*<b|r|0> + (<0|r|b>*<b|del|0>)*] (Au)
       state          X           Y           Z        Dip. S.   Osc.(frdel)
         1         0.0000      0.0000     -0.0011      0.0011      0.0007
         2        -0.0117      0.0000      0.0000      0.0118      0.0078
         3         0.0000      0.0000     -0.0132      0.0132      0.0088
         4        -0.0022     -0.0908      0.0000      0.0930      0.0620
         5         0.0000      0.0000     -0.0007      0.0007      0.0005
         6         0.0000     -0.0391      0.0000      0.0391      0.0261
         7         0.0000      0.0000     -0.0158      0.0158      0.0106
         8        -0.3665     -0.0005      0.0000      0.3670      0.2446
         9         0.0000      0.0000     -0.0183      0.0183      0.0122
        10        -0.0051     -0.0256      0.0000      0.0306      0.0204
        11        -0.0176     -0.0005      0.0000      0.0181      0.0121
        12        -0.0095      0.0000      0.0000      0.0095      0.0064
        13         0.0000      0.0000     -0.0111      0.0111      0.0074
        14         0.0000      0.0000     -0.0034      0.0034      0.0023
        15        -0.0532     -0.0061      0.0000      0.0593      0.0395
        16        -0.0187     -0.0158      0.0000      0.0345      0.0230
        17         0.0000      0.0000     -0.0032      0.0032      0.0021
        18        -0.0207      0.0000      0.0000      0.0207      0.0138
        19         0.0000      0.0000     -0.0011      0.0011      0.0007
        20         0.0000      0.0000      0.0000      0.0000      0.0000
 Ground to excited state transition densities written to RWF  633

 Excitation energies and oscillator strengths:
 
 Excited state symmetry could not be determined.
 Excited State   1:      Singlet-?Sym    5.3333 eV  232.47 nm  f=0.0007  <S**2>=0.000
      12 -> 16         0.58961
      12 -> 17        -0.35070
      12 -> 22         0.13248
 
 Excited state symmetry could not be determined.
 Excited State   2:      Singlet-?Sym    6.2654 eV  197.89 nm  f=0.0078  <S**2>=0.000
      11 -> 16        -0.12799
      12 -> 13         0.64256
      12 -> 15         0.15936
 
 Excited state symmetry could not be determined.
 Excited State   3:      Singlet-?Sym    6.5791 eV  188.45 nm  f=0.0088  <S**2>=0.000
      11 -> 13         0.66337
      11 -> 18         0.16984
 
 Excited state symmetry could not be determined.
 Excited State   4:      Singlet-?Sym    6.6375 eV  186.79 nm  f=0.0621  <S**2>=0.000
      12 -> 14         0.64698
      12 -> 18         0.13484
      12 -> 21        -0.17502
 
 Excited state symmetry could not be determined.
 Excited State   5:      Singlet-?Sym    7.1980 eV  172.25 nm  f=0.0005  <S**2>=0.000
      11 -> 14         0.64584
      11 -> 21        -0.23514
 
 Excited state symmetry could not be determined.
 Excited State   6:      Singlet-?Sym    7.2403 eV  171.24 nm  f=0.0260  <S**2>=0.000
      12 -> 13        -0.13649
      12 -> 14         0.12913
      12 -> 15         0.59585
      12 -> 18        -0.17007
      12 -> 19        -0.22157
      12 -> 23        -0.12665
 This state for optimization and/or second-order correction.
 Copying the excited state density for this state as the 1-particle RhoCI density.
 
 Excited state symmetry could not be determined.
 Excited State   7:      Singlet-?Sym    7.6177 eV  162.76 nm  f=0.0107  <S**2>=0.000
      12 -> 16         0.36107
      12 -> 17         0.59610
 
 Excited state symmetry could not be determined.
 Excited State   8:      Singlet-?Sym    7.6784 eV  161.47 nm  f=0.2459  <S**2>=0.000
      11 -> 16         0.47518
      11 -> 17        -0.41105
      12 -> 13         0.20767
      12 -> 18        -0.15205
 
 Excited state symmetry could not be determined.
 Excited State   9:      Singlet-?Sym    7.9577 eV  155.80 nm  f=0.0122  <S**2>=0.000
      11 -> 15         0.64960
      11 -> 19        -0.14271
      11 -> 23        -0.16804
 
 Excited state symmetry could not be determined.
 Excited State  10:      Singlet-?Sym    8.1510 eV  152.11 nm  f=0.0205  <S**2>=0.000
      12 -> 15         0.24964
      12 -> 18         0.13397
      12 -> 19         0.61463
      12 -> 21        -0.10224
 
 Excited state symmetry could not be determined.
 Excited State  11:      Singlet-?Sym    8.3101 eV  149.20 nm  f=0.0123  <S**2>=0.000
      11 -> 16         0.36193
      11 -> 17         0.53878
      12 -> 18        -0.19109
      12 -> 20        -0.12988
 
 Excited state symmetry could not be determined.
 Excited State  12:      Singlet-?Sym    8.4538 eV  146.66 nm  f=0.0060  <S**2>=0.000
      11 -> 16         0.29120
      11 -> 17         0.10259
      12 -> 14        -0.14378
      12 -> 18         0.45413
      12 -> 19        -0.12811
      12 -> 20         0.35368
 
 Excited state symmetry could not be determined.
 Excited State  13:      Singlet-?Sym    8.8374 eV  140.29 nm  f=0.0073  <S**2>=0.000
      11 -> 15         0.13131
      11 -> 18         0.31581
      11 -> 19         0.55632
      11 -> 24        -0.18301
      11 -> 30         0.10858
 
 Excited state symmetry could not be determined.
 Excited State  14:      Singlet-?Sym    8.9341 eV  138.78 nm  f=0.0023  <S**2>=0.000
      11 -> 13        -0.12768
      11 -> 18         0.50126
      11 -> 19        -0.32385
      11 -> 20         0.28087
 
 Excited state symmetry could not be determined.
 Excited State  15:      Singlet-?Sym    8.9586 eV  138.40 nm  f=0.0395  <S**2>=0.000
      12 -> 13        -0.10487
      12 -> 14         0.12621
      12 -> 18         0.31902
      12 -> 20        -0.36563
      12 -> 21         0.41347
      12 -> 23        -0.18390
 
 Excited state symmetry could not be determined.
 Excited State  16:      Singlet-?Sym    8.9945 eV  137.85 nm  f=0.0229  <S**2>=0.000
      12 -> 14         0.12626
      12 -> 18        -0.16763
      12 -> 19         0.13454
      12 -> 20         0.42038
      12 -> 21         0.46614
      12 -> 24         0.14124
      12 -> 26         0.11043
 
 Excited state symmetry could not be determined.
 Excited State  17:      Singlet-?Sym    9.2863 eV  133.51 nm  f=0.0023  <S**2>=0.000
      12 -> 17         0.12186
      12 -> 22         0.68282
 
 Excited state symmetry could not be determined.
 Excited State  18:      Singlet-?Sym    9.3504 eV  132.60 nm  f=0.0142  <S**2>=0.000
      12 -> 21         0.16841
      12 -> 23         0.47604
      12 -> 24        -0.43507
      12 -> 26         0.11165
      12 -> 27        -0.10700
 
 Excited state symmetry could not be determined.
 Excited State  19:      Singlet-?Sym    9.4160 eV  131.67 nm  f=0.0008  <S**2>=0.000
      10 -> 16         0.11695
      11 -> 13         0.17274
      11 -> 18        -0.19427
      11 -> 20         0.54869
      11 -> 21        -0.19795
      11 -> 24         0.13887
 
 Excited state symmetry could not be determined.
 Excited State  20:      Singlet-?Sym    9.5302 eV  130.10 nm  f=0.0000  <S**2>=0.000
      10 -> 16         0.47084
      10 -> 17        -0.27792
      10 -> 22         0.10396
      11 -> 14        -0.10408
      11 -> 19        -0.10229
      11 -> 20        -0.24094
      11 -> 21        -0.27329
 SavETr:  write IOETrn=   770 NScale= 10 NData=  16 NLR=1 LETran=     370.
 FoFJK:  IHMeth= 1 ICntrl=     0 DoSepK=T KAlg= 1 I1Cent= 0 FoldK=F
 FoFJK:  IHMeth= 1 ICntrl=     0 DoSepK=T KAlg= 1 I1Cent= 0 FoldK=F
          IDoAtm=111111
          Differentiating once with respect to electric field.
                with respect to dipole field.
          Differentiating once with respect to nuclear coordinates.
          There are     1 degrees of freedom in the 1st order CPHF.  IDoFFX=0.
 FoFJK:  IHMeth= 1 ICntrl=     0 DoSepK=T KAlg= 1 I1Cent= 0 FoldK=F
 LinEq1:  Iter=  0 NonCon=     1 RMS=3.41D-02 Max=8.72D-01
 AX will form     1 AO Fock derivatives at one time.
 FoFJK:  IHMeth= 1 ICntrl=     0 DoSepK=T KAlg= 1 I1Cent= 0 FoldK=F
 LinEq1:  Iter=  1 NonCon=     1 RMS=1.41D-02 Max=2.18D-01
 FoFJK:  IHMeth= 1 ICntrl=     0 DoSepK=T KAlg= 1 I1Cent= 0 FoldK=F
 LinEq1:  Iter=  2 NonCon=     1 RMS=7.58D-03 Max=1.32D-01
 FoFJK:  IHMeth= 1 ICntrl=     0 DoSepK=T KAlg= 1 I1Cent= 0 FoldK=F
 LinEq1:  Iter=  3 NonCon=     1 RMS=1.94D-03 Max=2.55D-02
 FoFJK:  IHMeth= 1 ICntrl=     0 DoSepK=T KAlg= 1 I1Cent= 0 FoldK=F
 LinEq1:  Iter=  4 NonCon=     1 RMS=1.01D-03 Max=1.70D-02
 FoFJK:  IHMeth= 1 ICntrl=     0 DoSepK=T KAlg= 1 I1Cent= 0 FoldK=F
 LinEq1:  Iter=  5 NonCon=     1 RMS=3.33D-04 Max=4.94D-03
 FoFJK:  IHMeth= 1 ICntrl=     0 DoSepK=T KAlg= 1 I1Cent= 0 FoldK=F
 LinEq1:  Iter=  6 NonCon=     1 RMS=5.76D-05 Max=7.30D-04
 FoFJK:  IHMeth= 1 ICntrl=     0 DoSepK=T KAlg= 1 I1Cent= 0 FoldK=F
 LinEq1:  Iter=  7 NonCon=     1 RMS=1.22D-05 Max=2.03D-04
 FoFJK:  IHMeth= 1 ICntrl=     0 DoSepK=T KAlg= 1 I1Cent= 0 FoldK=F
 LinEq1:  Iter=  8 NonCon=     1 RMS=2.13D-06 Max=4.30D-05
 FoFJK:  IHMeth= 1 ICntrl=     0 DoSepK=T KAlg= 1 I1Cent= 0 FoldK=F
 LinEq1:  Iter=  9 NonCon=     1 RMS=3.42D-07 Max=3.85D-06
 FoFJK:  IHMeth= 1 ICntrl=     0 DoSepK=T KAlg= 1 I1Cent= 0 FoldK=F
 LinEq1:  Iter= 10 NonCon=     1 RMS=7.52D-08 Max=1.07D-06
 FoFJK:  IHMeth= 1 ICntrl=     0 DoSepK=T KAlg= 1 I1Cent= 0 FoldK=F
 LinEq1:  Iter= 11 NonCon=     1 RMS=1.34D-08 Max=1.43D-07
 FoFJK:  IHMeth= 1 ICntrl=     0 DoSepK=T KAlg= 1 I1Cent= 0 FoldK=F
 LinEq1:  Iter= 12 NonCon=     1 RMS=3.20D-09 Max=3.77D-08
 FoFJK:  IHMeth= 1 ICntrl=     0 DoSepK=T KAlg= 1 I1Cent= 0 FoldK=F
 LinEq1:  Iter= 13 NonCon=     1 RMS=5.27D-10 Max=6.51D-09
 FoFJK:  IHMeth= 1 ICntrl=     0 DoSepK=T KAlg= 1 I1Cent= 0 FoldK=F
 LinEq1:  Iter= 14 NonCon=     1 RMS=8.77D-11 Max=1.41D-09
 FoFJK:  IHMeth= 1 ICntrl=     0 DoSepK=T KAlg= 1 I1Cent= 0 FoldK=F
 LinEq1:  Iter= 15 NonCon=     0 RMS=1.32D-11 Max=2.28D-10
 Linear equations converged to 1.000D-10 1.000D-09 after    15 iterations.
 FoFJK:  IHMeth= 1 ICntrl=     0 DoSepK=T KAlg= 1 I1Cent= 0 FoldK=F
 End of Minotr Frequency-dependent properties file   721 does not exist.
 End of Minotr Frequency-dependent properties file   722 does not exist.

 **********************************************************************

            Population analysis using the SCF density.

 **********************************************************************

 Alpha  occ. eigenvalues --  -19.16422 -14.44309 -10.35729  -1.11218  -1.01398
 Alpha  occ. eigenvalues --   -0.71220  -0.64679  -0.56666  -0.49241  -0.47028
 Alpha  occ. eigenvalues --   -0.34760  -0.32020
 Alpha virt. eigenvalues --   -0.00328   0.01691   0.03445   0.05184   0.06274
 Alpha virt. eigenvalues --    0.07461   0.08024   0.09264   0.09784   0.11648
 Alpha virt. eigenvalues --    0.12685   0.13358   0.17048   0.17488   0.18414
 Alpha virt. eigenvalues --    0.21303   0.21469   0.22475   0.23496   0.25410
 Alpha virt. eigenvalues --    0.27499   0.27933   0.30876   0.31431   0.31880
 Alpha virt. eigenvalues --    0.32901   0.34298   0.34406   0.37276   0.39139
 Alpha virt. eigenvalues --    0.40527   0.41163   0.44486   0.44894   0.48076
 Alpha virt. eigenvalues --    0.52630   0.53581   0.53828   0.54658   0.56802
 Alpha virt. eigenvalues --    0.58530   0.62262   0.67221   0.72016   0.72052
 Alpha virt. eigenvalues --    0.74690   0.75559   0.76516   0.77449   0.79308
 Alpha virt. eigenvalues --    0.81628   0.81995   0.84269   0.87159   0.87654
 Alpha virt. eigenvalues --    0.88314   0.91650   0.92299   0.92837   0.94140
 Alpha virt. eigenvalues --    0.95644   0.98136   0.98357   0.99539   1.00004
 Alpha virt. eigenvalues --    1.02179   1.04795   1.06091   1.08465   1.11446
 Alpha virt. eigenvalues --    1.11797   1.16971   1.21965   1.24057   1.24800
 Alpha virt. eigenvalues --    1.27452   1.29131   1.29523   1.32306   1.34178
 Alpha virt. eigenvalues --    1.41207   1.41602   1.46044   1.50764   1.53613
 Alpha virt. eigenvalues --    1.58634   1.60190   1.62302   1.72545   1.74656
 Alpha virt. eigenvalues --    1.78366   1.83254   1.83310   1.84185   1.88263
 Alpha virt. eigenvalues --    1.91484   1.97661   2.01489   2.07041   2.10025
 Alpha virt. eigenvalues --    2.17211   2.18115   2.21812   2.24298   2.24661
 Alpha virt. eigenvalues --    2.27030   2.31093   2.32640   2.34298   2.40786
 Alpha virt. eigenvalues --    2.42943   2.45839   2.48917   2.54402   2.55393
 Alpha virt. eigenvalues --    2.66035   2.67075   2.84875   2.88372   2.92529
 Alpha virt. eigenvalues --    2.92715   3.04143   3.13548   3.23704   3.32104
 Alpha virt. eigenvalues --    3.33581   3.35740   3.43411   3.45674   3.52472
 Alpha virt. eigenvalues --    3.59039   3.66253   3.72755   3.74705   3.81924
 Alpha virt. eigenvalues --    3.82136   3.87412   3.92361   3.97268   4.00457
 Alpha virt. eigenvalues --    4.00534   4.07120   4.11034   4.11499   4.14365
 Alpha virt. eigenvalues --    4.23690   4.26124   4.33713   4.38205   4.41265
 Alpha virt. eigenvalues --    4.42690   4.48451   4.52433   4.57485   4.69935
 Alpha virt. eigenvalues --    4.72240   4.73738   4.78810   4.86838   4.88151
 Alpha virt. eigenvalues --    4.97546   5.01482   5.13774   5.14563   5.15589
 Alpha virt. eigenvalues --    5.31305   5.33729   5.42871   5.50420   5.63729
 Alpha virt. eigenvalues --    5.64645   5.80102   5.80971   5.88627   6.03617
 Alpha virt. eigenvalues --    6.04992   6.26962   6.32064   6.33336   6.55309
 Alpha virt. eigenvalues --    6.58342   6.65406   6.73369   6.84301   6.87130
 Alpha virt. eigenvalues --    7.02852   7.14298   7.15225   7.20246   7.32419
 Alpha virt. eigenvalues --    7.40475   7.57802  13.97466  15.90881  16.85442
          Condensed to atoms (all electrons):
              1          2          3          4          5          6
     1  C    5.008240   0.392574   0.402932  -0.036704  -0.055375   0.281424
     2  N    0.392574   6.076297  -0.132192   0.407865   0.433680  -0.035830
     3  O    0.402932  -0.132192   8.297198   0.010751  -0.000896  -0.024613
     4  H   -0.036704   0.407865   0.010751   0.526586  -0.068665   0.000899
     5  H   -0.055375   0.433680  -0.000896  -0.068665   0.603233   0.005628
     6  H    0.281424  -0.035830  -0.024613   0.000899   0.005628   0.325489
 Mulliken atomic charges:
              1
     1  C    0.006909
     2  N   -0.142394
     3  O   -0.553180
     4  H    0.159268
     5  H    0.082395
     6  H    0.447003
 Sum of Mulliken atomic charges =   0.00000
 Mulliken charges with hydrogens summed into heavy atoms:
              1
     1  C    0.453912
     2  N    0.099268
     3  O   -0.553180
 Sum of Mulliken charges with hydrogens summed into heavy atoms =   0.00000
 Electronic spatial extent (au):  <R**2>=            145.8562
 Charge=              0.0000 electrons
 Dipole moment (field-independent basis, Debye):
    X=              4.5071    Y=              0.7569    Z=              0.0005  Tot=              4.5702
 Quadrupole moment (field-independent basis, Debye-Ang):
   XX=            -18.2827   YY=            -15.3272   ZZ=            -19.1971
   XY=             -1.7582   XZ=              0.0010   YZ=             -0.0004
 Traceless Quadrupole moment (field-independent basis, Debye-Ang):
   XX=             -0.6803   YY=              2.2751   ZZ=             -1.5948
   XY=             -1.7582   XZ=              0.0010   YZ=             -0.0004
 Octapole moment (field-independent basis, Debye-Ang**2):
  XXX=             13.4849  YYY=             -2.6843  ZZZ=              0.0011  XYY=              2.9633
  XXY=              0.2687  XXZ=              0.0034  XZZ=             -1.1485  YZZ=             -0.3921
  YYZ=              0.0015  XYZ=             -0.0004
 Hexadecapole moment (field-independent basis, Debye-Ang**3):
 XXXX=           -112.6117 YYYY=            -35.9201 ZZZZ=            -19.2410 XXXY=              3.1530
 XXXZ=             -0.0005 YYYX=             -4.6271 YYYZ=              0.0011 ZZZX=             -0.0049
 ZZZY=              0.0020 XXYY=            -23.3716 XXZZ=            -25.7605 YYZZ=            -10.6190
 XXYZ=              0.0003 YYXZ=             -0.0002 ZZXY=              0.5717
 N-N= 7.137160552050D+01 E-N=-5.410688433396D+02  KE= 1.688426180288D+02
 Calling FoFJK, ICntrl=      5127 FMM=F ISym2X=0 I1Cent= 0 IOpClX= 0 NMat=1 NMatS=1 NMatT=0.
 FoFJK:  IHMeth= 1 ICntrl=  5127 DoSepK=T KAlg= 1 I1Cent= 0 FoldK=F
 -------------------------------------------------------------------
 Center     Atomic                   Forces (Hartrees/Bohr)
 Number     Number              X              Y              Z
 -------------------------------------------------------------------
      1        6          -0.024440675    0.013628300    0.000052140
      2        7           0.015167076   -0.025796509   -0.000001070
      3        8           0.008159050    0.003816536   -0.000020645
      4        1          -0.011460404    0.033397139   -0.000008206
      5        1           0.002882057    0.001302103   -0.000005871
      6        1           0.009692895   -0.026347569   -0.000016347
 -------------------------------------------------------------------
 Cartesian Forces:  Max     0.033397139 RMS     0.014538407

 GradGradGradGradGradGradGradGradGradGradGradGradGradGradGradGradGradGrad
 Berny optimization.
 Internal  Forces:  Max     0.034643133 RMS     0.012339306
 Search for a local minimum.
 Step number   1 out of a maximum of   25
 All quantities printed in internal units (Hartrees-Bohrs-Radians)
 Mixed Optimization -- RFO/linear search
 Second derivative matrix not updated -- first step.
 The second derivative matrix:
                          R1        R2        R3        R4        R5
           R1           0.70837
           R2           0.00000   0.83757
           R3           0.00000   0.00000   0.28905
           R4           0.00000   0.00000   0.00000   0.39383
           R5           0.00000   0.00000   0.00000   0.00000   0.45823
           A1           0.00000   0.00000   0.00000   0.00000   0.00000
           A2           0.00000   0.00000   0.00000   0.00000   0.00000
           A3           0.00000   0.00000   0.00000   0.00000   0.00000
           A4           0.00000   0.00000   0.00000   0.00000   0.00000
           A5           0.00000   0.00000   0.00000   0.00000   0.00000
           A6           0.00000   0.00000   0.00000   0.00000   0.00000
           D1           0.00000   0.00000   0.00000   0.00000   0.00000
           D2           0.00000   0.00000   0.00000   0.00000   0.00000
           D3           0.00000   0.00000   0.00000   0.00000   0.00000
           D4           0.00000   0.00000   0.00000   0.00000   0.00000
                          A1        A2        A3        A4        A5
           A1           0.25000
           A2           0.00000   0.16000
           A3           0.00000   0.00000   0.16000
           A4           0.00000   0.00000   0.00000   0.16000
           A5           0.00000   0.00000   0.00000   0.00000   0.16000
           A6           0.00000   0.00000   0.00000   0.00000   0.00000
           D1           0.00000   0.00000   0.00000   0.00000   0.00000
           D2           0.00000   0.00000   0.00000   0.00000   0.00000
           D3           0.00000   0.00000   0.00000   0.00000   0.00000
           D4           0.00000   0.00000   0.00000   0.00000   0.00000
                          A6        D1        D2        D3        D4
           A6           0.16000
           D1           0.00000   0.03182
           D2           0.00000   0.00000   0.03182
           D3           0.00000   0.00000   0.00000   0.03182
           D4           0.00000   0.00000   0.00000   0.00000   0.03182
     Eigenvalues ---    0.03182   0.03182   0.03182   0.16000   0.16000
     Eigenvalues ---    0.16000   0.22000   0.28905   0.39383   0.45823
     Eigenvalues ---    0.70837   0.837571000.000001000.000001000.00000
 RFO step:  Lambda=-7.04554753D-03 EMin= 3.18211364D-02
 Linear search not attempted -- first point.
 Iteration  1 RMS(Cart)=  0.04568392 RMS(Int)=  0.00092179
 Iteration  2 RMS(Cart)=  0.00086639 RMS(Int)=  0.00000057
 Iteration  3 RMS(Cart)=  0.00000066 RMS(Int)=  0.00000004
 Variable       Old X    -DE/DX   Delta X   Delta X   Delta X     New X
                                 (Linear)    (Quad)   (Total)
    R1        2.43271   0.00199   0.00000   0.00278   0.00278   2.43549
    R2        2.35951  -0.00899   0.00000  -0.01065  -0.01065   2.34886
    R3        2.16901  -0.02743   0.00000  -0.09264  -0.09264   2.07638
    R4        1.99101  -0.03464   0.00000  -0.08642  -0.08642   1.90459
    R5        1.91031   0.00310   0.00000   0.00667   0.00667   1.91698
    A1        2.18993   0.00351   0.00000   0.01548   0.01548   2.20541
    A2        2.16569  -0.00824   0.00000  -0.04654  -0.04654   2.11915
    A3        1.92756   0.00472   0.00000   0.03106   0.03106   1.95862
    A4        2.16384  -0.00944   0.00000  -0.05651  -0.05651   2.10733
    A5        2.06857   0.00530   0.00000   0.03172   0.03172   2.10029
    A6        2.05077   0.00414   0.00000   0.02479   0.02479   2.07556
    D1        0.00019  -0.00002   0.00000  -0.00040  -0.00040  -0.00020
    D2       -3.14124  -0.00002   0.00000  -0.00055  -0.00055   3.14139
    D3        3.14130   0.00002   0.00000   0.00043   0.00043  -3.14145
    D4       -0.00013   0.00001   0.00000   0.00028   0.00028   0.00015
         Item               Value     Threshold  Converged?
 Maximum Force            0.034643     0.000450     NO 
 RMS     Force            0.012339     0.000300     NO 
 Maximum Displacement     0.099464     0.001800     NO 
 RMS     Displacement     0.045652     0.001200     NO 
 Predicted change in Energy=-3.608732D-03
 GradGradGradGradGradGradGradGradGradGradGradGradGradGradGradGradGradGrad

                          Input orientation:                          
 ---------------------------------------------------------------------
 Center     Atomic      Atomic             Coordinates (Angstroms)
 Number     Number       Type             X           Y           Z
 ---------------------------------------------------------------------
      1          6           0       -0.093836    0.384315    0.000057
      2          7           0        1.072507   -0.164012    0.000166
      3          8           0       -1.186588   -0.208010   -0.000169
      4          1           0        1.170192   -1.167133    0.000243
      5          1           0        1.908691    0.410311    0.000180
      6          1           0       -0.213244    1.476578   -0.000159
 ---------------------------------------------------------------------
                    Distance matrix (angstroms):
                    1          2          3          4          5
     1  C    0.000000
     2  N    1.288805   0.000000
     3  O    1.242963   2.259524   0.000000
     4  H    2.001189   1.007866   2.544470   0.000000
     5  H    2.002696   1.014421   3.156434   1.741755   0.000000
     6  H    1.098771   2.084392   1.945568   2.983806   2.374771
                    6
     6  H    0.000000
 Symmetry turned off by external request.
 Stoichiometry    CH3NO
 Framework group  C1[X(CH3NO)]
 Deg. of freedom    12
 Full point group                 C1      NOp   1
 Rotational constants (GHZ):     76.8205495     11.5583118     10.0466996
 Standard basis: Aug-CC-pVTZ (5D, 7F)
 Integral buffers will be    131072 words long.
 Raffenetti 2 integral format.
 Two-electron integral symmetry is turned off.
   207 basis functions,   297 primitive gaussians,   240 cartesian basis functions
    12 alpha electrons       12 beta electrons
       nuclear repulsion energy        71.8461510975 Hartrees.
 NAtoms=    6 NActive=    6 NUniq=    6 SFac= 7.50D-01 NAtFMM=   80 NAOKFM=F Big=F
 Standard density basis: Auto (5D, 7F)
   591 Density fitting functions
 One-electron integrals computed using PRISM.
 NBasis=   207 RedAO= T  NBF=   207
 NBsUse=   207 1.00D-06 NBFU=   207
 Initial guess read from the read-write file.
 B after Tr=     0.000000    0.000000    0.000000
         Rot=    1.000000    0.000000    0.000000    0.000000 Ang=   0.00 deg.
 Harris functional with IExCor=20419 diagonalized for initial guess.
 ExpMin= 2.53D-02 ExpMax= 1.53D+04 ExpMxC= 5.22D+02 IAcc=3 IRadAn=         5 AccDes= 0.00D+00
 HarFok:  IExCor=20419 AccDes= 0.00D+00 IRadAn=         5 IDoV= 1
 ScaDFX=  1.000000  1.000000  1.000000  1.000000
 FoFCou: FMM=F IPFlag=           0 FMFlag=      100000 FMFlg1=           0
         NFxFlg=           0 DoJE=T BraDBF=F KetDBF=T FulRan=T
         Omega=  0.000000  0.000000  1.000000  0.000000  0.000000 ICntrl=     500 IOpCl=  0
         NMat0=    1 NMatS0=    1 NMatT0=    0 NMatD0=    1 NMtDS0=    0 NMtDT0=    0
         I1Cent=           4 NGrid=           0.
 Symmetry not used in FoFCou.
 Requested convergence on RMS density matrix=1.00D-08 within 128 cycles.
 Requested convergence on MAX density matrix=1.00D-06.
 Requested convergence on             energy=1.00D-06.
 No special actions if energy rises.
 FoFJK:  IHMeth= 1 ICntrl=     0 DoSepK=T KAlg= 1 I1Cent= 0 FoldK=F
 FoFJK:  IHMeth= 1 ICntrl=     0 DoSepK=T KAlg= 1 I1Cent= 0 FoldK=F
 FoFJK:  IHMeth= 1 ICntrl=     0 DoSepK=T KAlg= 1 I1Cent= 0 FoldK=F
 FoFJK:  IHMeth= 1 ICntrl=     0 DoSepK=T KAlg= 1 I1Cent= 0 FoldK=F
 FoFJK:  IHMeth= 1 ICntrl=     0 DoSepK=T KAlg= 1 I1Cent= 0 FoldK=F
 FoFJK:  IHMeth= 1 ICntrl=     0 DoSepK=T KAlg= 1 I1Cent= 0 FoldK=F
 FoFJK:  IHMeth= 1 ICntrl=     0 DoSepK=T KAlg= 1 I1Cent= 0 FoldK=F
 FoFJK:  IHMeth= 1 ICntrl=     0 DoSepK=T KAlg= 1 I1Cent= 0 FoldK=F
 FoFJK:  IHMeth= 1 ICntrl=     0 DoSepK=T KAlg= 1 I1Cent= 0 FoldK=F
 FoFJK:  IHMeth= 1 ICntrl=     0 DoSepK=T KAlg= 1 I1Cent= 0 FoldK=F
 SCF Done:  E(RCAM-B3LYP) =  -169.889787256     A.U. after   10 cycles
             Convg  =    0.3075D-08             -V/T =  2.0053
 ExpMin= 2.53D-02 ExpMax= 1.53D+04 ExpMxC= 5.22D+02 IAcc=3 IRadAn=         5 AccDes= 0.00D+00
 HarFok:  IExCor=  205 AccDes= 0.00D+00 IRadAn=         5 IDoV=-2
 ScaDFX=  1.000000  1.000000  1.000000  1.000000
 Range of M.O.s used for correlation:     4   207
 NBasis=   207 NAE=    12 NBE=    12 NFC=     3 NFV=     0
 NROrb=    204 NOA=     9 NOB=     9 NVA=   195 NVB=   195

 **** Warning!!: The largest alpha MO coefficient is  0.38853602D+02

 Would need an additional   518800000 words for in-memory AO integral storage.
 Generating guess from densities on rwf.
 Convergence on wavefunction:    0.000001000000000
 Iteration     1 Dimension    40 NMult    40
 CISAX will form    40 AO SS matrices at one time.
 FoFJK:  IHMeth= 1 ICntrl=     0 DoSepK=T KAlg= 1 I1Cent= 0 FoldK=F
 FoFJK:  IHMeth= 1 ICntrl=     0 DoSepK=T KAlg= 1 I1Cent= 0 FoldK=F
 New state      5 was old state      6
 New state      6 was old state      5
 Iteration     2 Dimension    80 NMult    80
 FoFJK:  IHMeth= 1 ICntrl=     0 DoSepK=T KAlg= 1 I1Cent= 0 FoldK=F
 FoFJK:  IHMeth= 1 ICntrl=     0 DoSepK=T KAlg= 1 I1Cent= 0 FoldK=F
 New state     14 was old state     15
 New state     15 was old state     14
 Iteration     3 Dimension   120 NMult   120
 FoFJK:  IHMeth= 1 ICntrl=     0 DoSepK=T KAlg= 1 I1Cent= 0 FoldK=F
 FoFJK:  IHMeth= 1 ICntrl=     0 DoSepK=T KAlg= 1 I1Cent= 0 FoldK=F
 Iteration     4 Dimension   160 NMult   160
 FoFJK:  IHMeth= 1 ICntrl=     0 DoSepK=T KAlg= 1 I1Cent= 0 FoldK=F
 FoFJK:  IHMeth= 1 ICntrl=     0 DoSepK=T KAlg= 1 I1Cent= 0 FoldK=F
 Iteration     5 Dimension   200 NMult   200
 FoFJK:  IHMeth= 1 ICntrl=     0 DoSepK=T KAlg= 1 I1Cent= 0 FoldK=F
 FoFJK:  IHMeth= 1 ICntrl=     0 DoSepK=T KAlg= 1 I1Cent= 0 FoldK=F
 Iteration     6 Dimension   240 NMult   240
 FoFJK:  IHMeth= 1 ICntrl=     0 DoSepK=T KAlg= 1 I1Cent= 0 FoldK=F
 FoFJK:  IHMeth= 1 ICntrl=     0 DoSepK=T KAlg= 1 I1Cent= 0 FoldK=F
 Iteration     7 Dimension   272 NMult   272
 FoFJK:  IHMeth= 1 ICntrl=     0 DoSepK=T KAlg= 1 I1Cent= 0 FoldK=F
 FoFJK:  IHMeth= 1 ICntrl=     0 DoSepK=T KAlg= 1 I1Cent= 0 FoldK=F
 Iteration     8 Dimension   290 NMult   290
 FoFJK:  IHMeth= 1 ICntrl=     0 DoSepK=T KAlg= 1 I1Cent= 0 FoldK=F
 FoFJK:  IHMeth= 1 ICntrl=     0 DoSepK=T KAlg= 1 I1Cent= 0 FoldK=F
 Iteration     9 Dimension   300 NMult   300
 FoFJK:  IHMeth= 1 ICntrl=     0 DoSepK=T KAlg= 1 I1Cent= 0 FoldK=F
 FoFJK:  IHMeth= 1 ICntrl=     0 DoSepK=T KAlg= 1 I1Cent= 0 FoldK=F
 ***********************************************************************
 Excited states from <AA,BB:AA,BB> singles matrix:
 ***********************************************************************
 
 Ground to excited state transition electric dipole moments (Au):
       state          X           Y           Z        Dip. S.      Osc.
         1         0.0000     -0.0001      0.0662      0.0044      0.0006
         2        -0.2282     -0.0323      0.0000      0.0531      0.0082
         3         0.0001      0.0000     -0.2324      0.0540      0.0088
         4         0.1196      0.5789      0.0000      0.3495      0.0586
         5         0.0001     -0.0001     -0.0680      0.0046      0.0008
         6        -0.0087      0.3767      0.0000      0.1420      0.0254
         7         0.0002      0.0001      0.2259      0.0510      0.0096
         8        -1.1535      0.0397     -0.0002      1.3322      0.2530
         9        -0.0002      0.0000      0.2448      0.0599      0.0117
        10        -0.1075     -0.2650      0.0000      0.0818      0.0166
        11         0.2069     -0.0468      0.0000      0.0450      0.0092
        12        -0.1738      0.0061     -0.0001      0.0302      0.0063
        13         0.0001      0.0000     -0.2223      0.0494      0.0108
        14        -0.4212     -0.0956      0.0000      0.1866      0.0413
        15        -0.0002     -0.0001     -0.1076      0.0116      0.0026
        16         0.1719     -0.2576      0.0000      0.0959      0.0217
        17        -0.0003      0.0000      0.1049      0.0110      0.0025
        18        -0.2700      0.0034      0.0000      0.0729      0.0168
        19        -0.0002      0.0000     -0.0549      0.0030      0.0007
        20        -0.0003      0.0000     -0.0786      0.0062      0.0015
 Ground to excited state transition velocity dipole moments (Au):
       state          X           Y           Z        Dip. S.      Osc.
         1         0.0000      0.0000     -0.0141      0.0002      0.0007
         2         0.0534      0.0072      0.0000      0.0029      0.0083
         3         0.0000      0.0000      0.0568      0.0032      0.0088
         4        -0.0300     -0.1455      0.0000      0.0221      0.0585
         5         0.0000      0.0000      0.0187      0.0003      0.0009
         6         0.0025     -0.1015      0.0000      0.0103      0.0256
         7        -0.0001      0.0000     -0.0627      0.0039      0.0093
         8         0.3270     -0.0114      0.0001      0.1070      0.2505
         9         0.0001      0.0000     -0.0722      0.0052      0.0118
        10         0.0330      0.0803      0.0000      0.0075      0.0165
        11        -0.0616      0.0149      0.0000      0.0040      0.0087
        12         0.0579     -0.0008      0.0000      0.0034      0.0071
        13         0.0000      0.0000      0.0739      0.0055      0.0110
        14         0.1402      0.0302      0.0000      0.0206      0.0413
        15         0.0001      0.0000      0.0362      0.0013      0.0026
        16        -0.0593      0.0870      0.0000      0.0111      0.0218
        17         0.0001      0.0000     -0.0340      0.0012      0.0022
        18         0.0910      0.0004      0.0000      0.0083      0.0160
        19         0.0001      0.0000      0.0164      0.0003      0.0005
        20         0.0001      0.0000      0.0293      0.0009      0.0016
 Ground to excited state transition magnetic dipole moments (Au):
       state          X           Y           Z
         1        -0.9775     -0.2837     -0.0002
         2        -0.0002     -0.0001      0.2335
         3        -0.0184     -0.3929      0.0000
         4         0.0000      0.0000     -0.1106
         5        -0.0378     -0.0382      0.0000
         6        -0.0001      0.0000      0.3906
         7        -0.0671      0.0952      0.0001
         8         0.0002      0.0001     -0.5347
         9        -0.0076     -0.3843     -0.0001
        10         0.0001      0.0000     -0.1894
        11         0.0001      0.0000     -0.0147
        12         0.0001      0.0000     -0.4500
        13        -0.0813      0.3589      0.0002
        14         0.0001      0.0000      0.1173
        15        -0.0935     -0.4559      0.0000
        16         0.0000      0.0000      0.1268
        17        -0.0642     -0.0818     -0.0002
        18         0.0004      0.0000     -0.2084
        19        -0.1426      0.0512     -0.0001
        20        -0.7731      0.7534     -0.0004
 <0|del|b> * <b|rxdel|0> + <0|del|b> * <b|delr+rdel|0>
 Rotatory Strengths (R) in cgs (10**-40 erg-esu-cm/Gauss)
       state          XX          YY          ZZ    R(velocity)
         1        -0.0018      0.0099     -0.0028      0.0018
 Total R(velocity) tensor for State=          1
                 1             2             3 
      1  -0.182230D-02 -0.145842D-02 -0.105013D-05
      2   0.264327D-01  0.987886D-02  0.459726D-05
      3  -0.210228D+02 -0.690329D+01 -0.275685D-02
         2         0.0053     -0.0178     -0.0136     -0.0087
 Total R(velocity) tensor for State=          2
                 1             2             3 
      1   0.525165D-02  0.111792D-01 -0.321155D+02
      2   0.897964D-02 -0.177566D-01 -0.313673D+02
      3  -0.107232D+01  0.798610D+01 -0.136495D-01
         3         0.0063      0.0028     -0.0002      0.0030
 Total R(velocity) tensor for State=          3
                 1             2             3 
      1   0.628405D-02 -0.295583D-01  0.000000D+00
      2  -0.930857D-02  0.281679D-02 -0.446362D-05
      3  -0.944205D+00  0.266012D+01 -0.225994D-03
         4         0.0049      0.0009     -0.0013      0.0015
 Total R(velocity) tensor for State=          4
                 1             2             3 
      1   0.485854D-02 -0.174341D-02 -0.548648D+02
      2  -0.483196D-02  0.859726D-03 -0.102298D+02
      3   0.185070D+01 -0.382146D+00 -0.134322D-02
         5        -0.0003      0.0055     -0.0029      0.0008
 Total R(velocity) tensor for State=          5
                 1             2             3 
      1  -0.273168D-03 -0.223437D-02  0.261170D-05
      2   0.416499D-02  0.552161D-02  0.000000D+00
      3  -0.107816D+01  0.654171D+00 -0.287778D-02
         6         0.0024      0.0052      0.0069      0.0049
 Total R(velocity) tensor for State=          6
                 1             2             3 
      1   0.242215D-02  0.573542D-02  0.479988D+02
      2  -0.129909D-01  0.524870D-02  0.470820D+02
      3   0.816589D+01  0.200435D+00  0.688919D-02
         7        -0.0185      0.0024      0.0027     -0.0044
 Total R(velocity) tensor for State=          7
                 1             2             3 
      1  -0.184846D-01  0.158931D-01  0.151734D-04
      2  -0.137856D-02  0.244297D-02  0.000000D+00
      3  -0.234663D+01 -0.156134D+01  0.273505D-02
         8        -0.0618      0.0417      0.0730      0.0176
 Total R(velocity) tensor for State=          8
                 1             2             3 
      1  -0.618452D-01 -0.765025D-01  0.335309D+03
      2  -0.541802D-03  0.416798D-01  0.112882D+02
      3   0.152455D+01  0.438057D+02  0.729882D-01
         9         0.0159      0.0004      0.0028      0.0064
 Total R(velocity) tensor for State=          9
                 1             2             3 
      1   0.159455D-01  0.406732D-01  0.158072D-04
      2   0.278357D-02  0.434017D-03  0.280576D-05
      3   0.265419D+01 -0.197147D+02  0.281527D-02
        10         0.0027      0.0036      0.0089      0.0050
 Total R(velocity) tensor for State=         10
                 1             2             3 
      1   0.265030D-02 -0.159970D-02  0.148171D+02
      2  -0.666048D-02  0.356440D-02 -0.239940D+02
      3   0.190436D+01 -0.782996D+00  0.891770D-02
        11         0.0019     -0.0044     -0.0055     -0.0026
 Total R(velocity) tensor for State=         11
                 1             2             3 
      1   0.194763D-02 -0.578661D-03 -0.106895D+02
      2  -0.499865D-03 -0.438216D-02 -0.285462D+01
      3   0.257521D+01  0.106738D+02 -0.546440D-02
        12        -0.0146     -0.0077      0.0063     -0.0054
 Total R(velocity) tensor for State=         12
                 1             2             3 
      1  -0.146462D-01 -0.411648D-02  0.342530D+02
      2   0.296933D-02 -0.768397D-02 -0.723499D+01
      3   0.152256D+00  0.104803D+02  0.627318D-02
        13         0.0219      0.0155      0.0000      0.0125
 Total R(velocity) tensor for State=         13
                 1             2             3 
      1   0.219208D-01  0.159180D-01  0.921488D-05
      2  -0.910899D-03  0.154976D-01  0.000000D+00
      3   0.190714D-01 -0.515454D+00  0.147203D-04
        14        -0.0015     -0.0029      0.0191      0.0049
 Total R(velocity) tensor for State=         14
                 1             2             3 
      1  -0.154941D-02  0.471067D-02 -0.517486D+01
      2  -0.139641D-02 -0.292151D-02 -0.195452D+02
      3   0.474969D+00 -0.220803D+01  0.190611D-01
        15        -0.0185      0.0065     -0.0230     -0.0117
 Total R(velocity) tensor for State=         15
                 1             2             3 
      1  -0.184952D-01  0.343168D-01  0.749413D-05
      2   0.136785D-02  0.652908D-02 -0.634469D-05
      3   0.865535D+01  0.145128D+02 -0.230314D-01
        16         0.0016     -0.0005     -0.0005      0.0002
 Total R(velocity) tensor for State=         16
                 1             2             3 
      1   0.159842D-02  0.181976D-02  0.497711D+01
      2  -0.410721D-02 -0.501928D-03  0.156224D+02
      3  -0.454465D+01 -0.309499D+01 -0.521887D-03
        17         0.0020      0.0068     -0.0067      0.0007
 Total R(velocity) tensor for State=         17
                 1             2             3 
      1   0.198308D-02 -0.202370D-02  0.544742D-05
      2  -0.149830D-01  0.682014D-02 -0.409117D-04
      3  -0.252819D+01 -0.587461D+01 -0.669950D-02
        18        -0.0003      0.0355      0.0278      0.0210
 Total R(velocity) tensor for State=         18
                 1             2             3 
      1  -0.263347D-03  0.138012D-01  0.176394D+01
      2   0.459691D-02  0.354859D-01 -0.422544D+02
      3   0.653090D-01 -0.139706D+02  0.278163D-01
        19        -0.0012     -0.0096     -0.0110     -0.0073
 Total R(velocity) tensor for State=         19
                 1             2             3 
      1  -0.121035D-02 -0.925604D-02  0.665836D-05
      2   0.412544D-02 -0.956274D-02 -0.129843D-04
      3   0.294441D+01  0.721087D+00 -0.110496D-01
        20         0.0005     -0.1125     -0.0368     -0.0496
 Total R(velocity) tensor for State=         20
                 1             2             3 
      1   0.540951D-03 -0.758848D-01  0.359223D-04
      2   0.180840D-01 -0.112531D+00 -0.417676D-05
      3   0.143217D+02 -0.217330D+02 -0.368038D-01
 1/2[<0|r|b>*<b|rxdel|0> + (<0|rxdel|b>*<b|r|0>)*]
 Rotatory Strengths (R) in cgs (10**-40 erg-esu-cm/Gauss)
       state          XX          YY          ZZ     R(length)     R(au)
         1         0.0088     -0.0132      0.0093      0.0016      0.0000
         2        -0.0318     -0.0022      0.0081     -0.0086      0.0000
         3         0.0015      0.0063      0.0012      0.0030      0.0000
         4         0.0010      0.0040     -0.0005      0.0015      0.0000
         5         0.0034     -0.0026      0.0016      0.0008      0.0000
         6        -0.0006      0.0028      0.0121      0.0048      0.0000
         7         0.0108     -0.0035     -0.0210     -0.0046      0.0000
         8         0.1336     -0.0035     -0.0766      0.0179      0.0000
         9        -0.0013      0.0006      0.0200      0.0064      0.0000
        10         0.0085      0.0078     -0.0012      0.0050      0.0000
        11        -0.0082     -0.0003      0.0004     -0.0027      0.0000
        12         0.0084      0.0000     -0.0242     -0.0053      0.0000
        13         0.0056      0.0010      0.0309      0.0125      0.0000
        14         0.0157      0.0026     -0.0037      0.0049      0.0000
        15        -0.0114     -0.0221     -0.0011     -0.0115      0.0000
        16         0.0023      0.0016     -0.0034      0.0002      0.0000
        17        -0.0125      0.0004      0.0150      0.0010      0.0000
        18         0.0691      0.0001     -0.0051      0.0213      0.0000
        19        -0.0178      0.0003     -0.0054     -0.0076      0.0000
        20        -0.1502      0.0208     -0.0196     -0.0497     -0.0001
  1/2[<0|del|b>*<b|r|0> + (<0|r|b>*<b|del|0>)*] (Au)
       state          X           Y           Z        Dip. S.   Osc.(frdel)
         1         0.0000      0.0000     -0.0009      0.0009      0.0006
         2        -0.0122     -0.0002      0.0000      0.0124      0.0083
         3         0.0000      0.0000     -0.0132      0.0132      0.0088
         4        -0.0036     -0.0842      0.0000      0.0878      0.0585
         5         0.0000      0.0000     -0.0013      0.0013      0.0008
         6         0.0000     -0.0382      0.0000      0.0383      0.0255
         7         0.0000      0.0000     -0.0142      0.0142      0.0094
         8        -0.3772     -0.0005      0.0000      0.3776      0.2517
         9         0.0000      0.0000     -0.0177      0.0177      0.0118
        10        -0.0035     -0.0213      0.0000      0.0248      0.0166
        11        -0.0128     -0.0007      0.0000      0.0134      0.0090
        12        -0.0101      0.0000      0.0000      0.0101      0.0067
        13         0.0000      0.0000     -0.0164      0.0164      0.0109
        14        -0.0591     -0.0029      0.0000      0.0620      0.0413
        15         0.0000      0.0000     -0.0039      0.0039      0.0026
        16        -0.0102     -0.0224      0.0000      0.0326      0.0217
        17         0.0000      0.0000     -0.0036      0.0036      0.0024
        18        -0.0246      0.0000      0.0000      0.0246      0.0164
        19         0.0000      0.0000     -0.0009      0.0009      0.0006
        20         0.0000      0.0000     -0.0023      0.0023      0.0015
 Ground to excited state transition densities written to RWF  633

 Excitation energies and oscillator strengths:
 
 Excited state symmetry could not be determined.
 Excited State   1:      Singlet-?Sym    5.4048 eV  229.40 nm  f=0.0006  <S**2>=0.000
      12 -> 16         0.57672
      12 -> 17        -0.37236
      12 -> 22         0.12954
 
 Excited state symmetry could not be determined.
 Excited State   2:      Singlet-?Sym    6.3333 eV  195.77 nm  f=0.0082  <S**2>=0.000
      11 -> 16        -0.11932
      12 -> 13         0.63918
      12 -> 15         0.16961
 
 Excited state symmetry could not be determined.
 Excited State   3:      Singlet-?Sym    6.6439 eV  186.61 nm  f=0.0088  <S**2>=0.000
      11 -> 13         0.66553
      11 -> 18        -0.16184
 
 Excited state symmetry could not be determined.
 Excited State   4:      Singlet-?Sym    6.8443 eV  181.15 nm  f=0.0586  <S**2>=0.000
      12 -> 14         0.65190
      12 -> 18        -0.11179
      12 -> 21        -0.16644
 
 Excited state symmetry could not be determined.
 Excited State   5:      Singlet-?Sym    7.3900 eV  167.77 nm  f=0.0008  <S**2>=0.000
      11 -> 14         0.65054
      11 -> 21        -0.22068
 
 Excited state symmetry could not be determined.
 Excited State   6:      Singlet-?Sym    7.2996 eV  169.85 nm  f=0.0254  <S**2>=0.000
      12 -> 13        -0.15254
      12 -> 14         0.10004
      12 -> 15         0.60034
      12 -> 18         0.17304
      12 -> 19        -0.21229
      12 -> 23        -0.12610
 This state for optimization and/or second-order correction.
 Copying the excited state density for this state as the 1-particle RhoCI density.
 
 Excited state symmetry could not be determined.
 Excited State   7:      Singlet-?Sym    7.6868 eV  161.30 nm  f=0.0096  <S**2>=0.000
      12 -> 16         0.38233
      12 -> 17         0.58246
 
 Excited state symmetry could not be determined.
 Excited State   8:      Singlet-?Sym    7.7520 eV  159.94 nm  f=0.2530  <S**2>=0.000
      11 -> 16         0.45741
      11 -> 17        -0.43296
      12 -> 13         0.20452
      12 -> 18         0.14972
 
 Excited state symmetry could not be determined.
 Excited State   9:      Singlet-?Sym    7.9995 eV  154.99 nm  f=0.0117  <S**2>=0.000
      11 -> 14        -0.10127
      11 -> 15         0.64580
      11 -> 19        -0.13558
      11 -> 23        -0.16572
 
 Excited state symmetry could not be determined.
 Excited State  10:      Singlet-?Sym    8.2803 eV  149.73 nm  f=0.0166  <S**2>=0.000
      12 -> 15         0.25293
      12 -> 18        -0.16477
      12 -> 19         0.60941
 
 Excited state symmetry could not be determined.
 Excited State  11:      Singlet-?Sym    8.3660 eV  148.20 nm  f=0.0092  <S**2>=0.000
      11 -> 16         0.41325
      11 -> 17         0.52480
      12 -> 18         0.13523
      12 -> 19         0.10188
      12 -> 20        -0.10022
 
 Excited state symmetry could not be determined.
 Excited State  12:      Singlet-?Sym    8.5579 eV  144.88 nm  f=0.0063  <S**2>=0.000
      11 -> 16         0.25634
      12 -> 14        -0.12620
      12 -> 18        -0.45992
      12 -> 19        -0.14552
      12 -> 20         0.39401
 
 Excited state symmetry could not be determined.
 Excited State  13:      Singlet-?Sym    8.9612 eV  138.36 nm  f=0.0108  <S**2>=0.000
      11 -> 15         0.12240
      11 -> 18        -0.34773
      11 -> 19         0.54642
      11 -> 24        -0.17320
 
 Excited state symmetry could not be determined.
 Excited State  14:      Singlet-?Sym    9.0291 eV  137.32 nm  f=0.0413  <S**2>=0.000
      12 -> 13        -0.11861
      12 -> 14         0.10005
      12 -> 18        -0.35762
      12 -> 20        -0.46468
      12 -> 21         0.25187
      12 -> 23        -0.18829
 
 Excited state symmetry could not be determined.
 Excited State  15:      Singlet-?Sym    9.0402 eV  137.15 nm  f=0.0026  <S**2>=0.000
      11 -> 13        -0.13048
      11 -> 18        -0.48261
      11 -> 19        -0.35421
      11 -> 20         0.28258
 
 Excited state symmetry could not be determined.
 Excited State  16:      Singlet-?Sym    9.2179 eV  134.50 nm  f=0.0217  <S**2>=0.000
      12 -> 14         0.15362
      12 -> 18         0.10468
      12 -> 19         0.11328
      12 -> 20         0.27244
      12 -> 21         0.58327
      12 -> 24         0.10959
 
 Excited state symmetry could not be determined.
 Excited State  17:      Singlet-?Sym    9.3533 eV  132.56 nm  f=0.0025  <S**2>=0.000
      12 -> 17         0.12297
      12 -> 22         0.68280
 
 Excited state symmetry could not be determined.
 Excited State  18:      Singlet-?Sym    9.3895 eV  132.04 nm  f=0.0168  <S**2>=0.000
      12 -> 21         0.17271
      12 -> 23         0.52387
      12 -> 24        -0.37239
      12 -> 26         0.10218
 
 Excited state symmetry could not be determined.
 Excited State  19:      Singlet-?Sym    9.4684 eV  130.95 nm  f=0.0007  <S**2>=0.000
      11 -> 13         0.17512
      11 -> 18         0.20554
      11 -> 20         0.57646
      11 -> 21        -0.14170
      11 -> 23        -0.10068
      11 -> 24         0.12321
 
 Excited state symmetry could not be determined.
 Excited State  20:      Singlet-?Sym    9.6701 eV  128.21 nm  f=0.0015  <S**2>=0.000
      10 -> 16         0.49388
      10 -> 17        -0.31613
      10 -> 22         0.10931
      11 -> 20        -0.15845
      11 -> 21        -0.23224
      11 -> 23        -0.14540
 SavETr:  write IOETrn=   770 NScale= 10 NData=  16 NLR=1 LETran=     370.
 FoFJK:  IHMeth= 1 ICntrl=     0 DoSepK=T KAlg= 1 I1Cent= 0 FoldK=F
 FoFJK:  IHMeth= 1 ICntrl=     0 DoSepK=T KAlg= 1 I1Cent= 0 FoldK=F
          IDoAtm=111111
          Differentiating once with respect to electric field.
                with respect to dipole field.
          Differentiating once with respect to nuclear coordinates.
          There are     1 degrees of freedom in the 1st order CPHF.  IDoFFX=0.
 FoFJK:  IHMeth= 1 ICntrl=     0 DoSepK=T KAlg= 1 I1Cent= 0 FoldK=F
 LinEq1:  Iter=  0 NonCon=     1 RMS=3.38D-02 Max=8.45D-01
 AX will form     1 AO Fock derivatives at one time.
 FoFJK:  IHMeth= 1 ICntrl=     0 DoSepK=T KAlg= 1 I1Cent= 0 FoldK=F
 LinEq1:  Iter=  1 NonCon=     1 RMS=1.40D-02 Max=2.20D-01
 FoFJK:  IHMeth= 1 ICntrl=     0 DoSepK=T KAlg= 1 I1Cent= 0 FoldK=F
 LinEq1:  Iter=  2 NonCon=     1 RMS=7.34D-03 Max=1.23D-01
 FoFJK:  IHMeth= 1 ICntrl=     0 DoSepK=T KAlg= 1 I1Cent= 0 FoldK=F
 LinEq1:  Iter=  3 NonCon=     1 RMS=1.81D-03 Max=2.43D-02
 FoFJK:  IHMeth= 1 ICntrl=     0 DoSepK=T KAlg= 1 I1Cent= 0 FoldK=F
 LinEq1:  Iter=  4 NonCon=     1 RMS=9.37D-04 Max=1.56D-02
 FoFJK:  IHMeth= 1 ICntrl=     0 DoSepK=T KAlg= 1 I1Cent= 0 FoldK=F
 LinEq1:  Iter=  5 NonCon=     1 RMS=3.02D-04 Max=4.50D-03
 FoFJK:  IHMeth= 1 ICntrl=     0 DoSepK=T KAlg= 1 I1Cent= 0 FoldK=F
 LinEq1:  Iter=  6 NonCon=     1 RMS=5.13D-05 Max=6.59D-04
 FoFJK:  IHMeth= 1 ICntrl=     0 DoSepK=T KAlg= 1 I1Cent= 0 FoldK=F
 LinEq1:  Iter=  7 NonCon=     1 RMS=1.09D-05 Max=1.78D-04
 FoFJK:  IHMeth= 1 ICntrl=     0 DoSepK=T KAlg= 1 I1Cent= 0 FoldK=F
 LinEq1:  Iter=  8 NonCon=     1 RMS=1.89D-06 Max=3.77D-05
 FoFJK:  IHMeth= 1 ICntrl=     0 DoSepK=T KAlg= 1 I1Cent= 0 FoldK=F
 LinEq1:  Iter=  9 NonCon=     1 RMS=3.08D-07 Max=3.55D-06
 FoFJK:  IHMeth= 1 ICntrl=     0 DoSepK=T KAlg= 1 I1Cent= 0 FoldK=F
 LinEq1:  Iter= 10 NonCon=     1 RMS=7.04D-08 Max=9.78D-07
 FoFJK:  IHMeth= 1 ICntrl=     0 DoSepK=T KAlg= 1 I1Cent= 0 FoldK=F
 LinEq1:  Iter= 11 NonCon=     1 RMS=1.22D-08 Max=1.29D-07
 FoFJK:  IHMeth= 1 ICntrl=     0 DoSepK=T KAlg= 1 I1Cent= 0 FoldK=F
 LinEq1:  Iter= 12 NonCon=     1 RMS=2.95D-09 Max=3.46D-08
 FoFJK:  IHMeth= 1 ICntrl=     0 DoSepK=T KAlg= 1 I1Cent= 0 FoldK=F
 LinEq1:  Iter= 13 NonCon=     1 RMS=4.69D-10 Max=5.40D-09
 FoFJK:  IHMeth= 1 ICntrl=     0 DoSepK=T KAlg= 1 I1Cent= 0 FoldK=F
 LinEq1:  Iter= 14 NonCon=     1 RMS=7.51D-11 Max=1.11D-09
 FoFJK:  IHMeth= 1 ICntrl=     0 DoSepK=T KAlg= 1 I1Cent= 0 FoldK=F
 LinEq1:  Iter= 15 NonCon=     0 RMS=1.06D-11 Max=1.38D-10
 Linear equations converged to 1.000D-10 1.000D-09 after    15 iterations.
 FoFJK:  IHMeth= 1 ICntrl=     0 DoSepK=T KAlg= 1 I1Cent= 0 FoldK=F
 End of Minotr Frequency-dependent properties file   721 does not exist.
 End of Minotr Frequency-dependent properties file   722 does not exist.
 Calling FoFJK, ICntrl=      5127 FMM=F ISym2X=0 I1Cent= 0 IOpClX= 0 NMat=1 NMatS=1 NMatT=0.
 FoFJK:  IHMeth= 1 ICntrl=  5127 DoSepK=T KAlg= 1 I1Cent= 0 FoldK=F
 -------------------------------------------------------------------
 Center     Atomic                   Forces (Hartrees/Bohr)
 Number     Number              X              Y              Z
 -------------------------------------------------------------------
      1        6          -0.009090728    0.001943226   -0.000039454
      2        7           0.004946861   -0.000979261    0.000010777
      3        8           0.003408078   -0.000307990    0.000014557
      4        1          -0.001161784   -0.001155914   -0.000000628
      5        1          -0.000466723    0.000935774    0.000002313
      6        1           0.002364296   -0.000435836    0.000012435
 -------------------------------------------------------------------
 Cartesian Forces:  Max     0.009090728 RMS     0.002719467

 GradGradGradGradGradGradGradGradGradGradGradGradGradGradGradGradGradGrad
 Berny optimization.
 Using GEDIIS/GDIIS optimizer.
 Internal  Forces:  Max     0.003513398 RMS     0.001625408
 Search for a local minimum.
 Step number   2 out of a maximum of   25
 All quantities printed in internal units (Hartrees-Bohrs-Radians)
 Mixed Optimization -- RFO/linear search
 Update second derivatives using D2CorX and points    1    2
 DE= -3.79D-03 DEPred=-3.61D-03 R= 1.05D+00
 SS=  1.41D+00  RLast= 1.56D-01 DXNew= 5.0454D-01 4.6862D-01
 Trust test= 1.05D+00 RLast= 1.56D-01 DXMaxT set to 4.69D-01
 The second derivative matrix:
                          R1        R2        R3        R4        R5
           R1           0.70815
           R2           0.00393   0.83155
           R3           0.01366  -0.01059   0.28985
           R4           0.01775  -0.01194   0.00768   0.41248
           R5          -0.00154   0.00129   0.00027  -0.00039   0.45816
           A1          -0.00220   0.00061  -0.00411  -0.00645   0.00040
           A2           0.00360  -0.00377  -0.00334  -0.00262   0.00047
           A3          -0.00179   0.00496   0.01289   0.01597  -0.00149
[...]
      11 -> 13         0.17191
      11 -> 18         0.17070
      11 -> 20         0.58082
      11 -> 21        -0.13248
      11 -> 23        -0.11412
      11 -> 24         0.12055
      12 -> 22        -0.10006
 
 Excited state symmetry could not be determined.
 Excited State  20:      Singlet-?Sym    9.6745 eV  128.16 nm  f=0.0027  <S**2>=0.000
      10 -> 16         0.43526
      10 -> 17        -0.24892
      11 -> 14        -0.11422
      11 -> 20        -0.17734
      11 -> 21        -0.32895
      11 -> 23        -0.19478
      11 -> 24         0.11297
 SavETr:  write IOETrn=   770 NScale= 10 NData=  16 NLR=1 LETran=     370.
 FoFJK:  IHMeth= 1 ICntrl=     0 DoSepK=T KAlg= 1 I1Cent= 0 FoldK=F
 FoFJK:  IHMeth= 1 ICntrl=     0 DoSepK=T KAlg= 1 I1Cent= 0 FoldK=F
          IDoAtm=111111
          Differentiating once with respect to electric field.
                with respect to dipole field.
          Differentiating once with respect to nuclear coordinates.
          There are     1 degrees of freedom in the 1st order CPHF.  IDoFFX=0.
 FoFJK:  IHMeth= 1 ICntrl=     0 DoSepK=T KAlg= 1 I1Cent= 0 FoldK=F
 LinEq1:  Iter=  0 NonCon=     1 RMS=3.34D-02 Max=8.52D-01
 AX will form     1 AO Fock derivatives at one time.
 FoFJK:  IHMeth= 1 ICntrl=     0 DoSepK=T KAlg= 1 I1Cent= 0 FoldK=F
 LinEq1:  Iter=  1 NonCon=     1 RMS=1.38D-02 Max=2.07D-01
 FoFJK:  IHMeth= 1 ICntrl=     0 DoSepK=T KAlg= 1 I1Cent= 0 FoldK=F
 LinEq1:  Iter=  2 NonCon=     1 RMS=7.33D-03 Max=1.27D-01
 FoFJK:  IHMeth= 1 ICntrl=     0 DoSepK=T KAlg= 1 I1Cent= 0 FoldK=F
 LinEq1:  Iter=  3 NonCon=     1 RMS=1.80D-03 Max=2.45D-02
 FoFJK:  IHMeth= 1 ICntrl=     0 DoSepK=T KAlg= 1 I1Cent= 0 FoldK=F
 LinEq1:  Iter=  4 NonCon=     1 RMS=9.84D-04 Max=1.65D-02
 FoFJK:  IHMeth= 1 ICntrl=     0 DoSepK=T KAlg= 1 I1Cent= 0 FoldK=F
 LinEq1:  Iter=  5 NonCon=     1 RMS=2.96D-04 Max=4.22D-03
 FoFJK:  IHMeth= 1 ICntrl=     0 DoSepK=T KAlg= 1 I1Cent= 0 FoldK=F
 LinEq1:  Iter=  6 NonCon=     1 RMS=5.09D-05 Max=7.28D-04
 FoFJK:  IHMeth= 1 ICntrl=     0 DoSepK=T KAlg= 1 I1Cent= 0 FoldK=F
 LinEq1:  Iter=  7 NonCon=     1 RMS=1.10D-05 Max=1.79D-04
 FoFJK:  IHMeth= 1 ICntrl=     0 DoSepK=T KAlg= 1 I1Cent= 0 FoldK=F
 LinEq1:  Iter=  8 NonCon=     1 RMS=1.93D-06 Max=3.71D-05
 FoFJK:  IHMeth= 1 ICntrl=     0 DoSepK=T KAlg= 1 I1Cent= 0 FoldK=F
 LinEq1:  Iter=  9 NonCon=     1 RMS=3.42D-07 Max=3.67D-06
 FoFJK:  IHMeth= 1 ICntrl=     0 DoSepK=T KAlg= 1 I1Cent= 0 FoldK=F
 LinEq1:  Iter= 10 NonCon=     1 RMS=8.06D-08 Max=1.16D-06
 FoFJK:  IHMeth= 1 ICntrl=     0 DoSepK=T KAlg= 1 I1Cent= 0 FoldK=F
 LinEq1:  Iter= 11 NonCon=     1 RMS=1.30D-08 Max=1.19D-07
 FoFJK:  IHMeth= 1 ICntrl=     0 DoSepK=T KAlg= 1 I1Cent= 0 FoldK=F
 LinEq1:  Iter= 12 NonCon=     1 RMS=2.93D-09 Max=3.36D-08
 FoFJK:  IHMeth= 1 ICntrl=     0 DoSepK=T KAlg= 1 I1Cent= 0 FoldK=F
 LinEq1:  Iter= 13 NonCon=     1 RMS=4.83D-10 Max=7.34D-09
 FoFJK:  IHMeth= 1 ICntrl=     0 DoSepK=T KAlg= 1 I1Cent= 0 FoldK=F
 LinEq1:  Iter= 14 NonCon=     1 RMS=9.53D-11 Max=2.22D-09
 FoFJK:  IHMeth= 1 ICntrl=     0 DoSepK=T KAlg= 1 I1Cent= 0 FoldK=F
 LinEq1:  Iter= 15 NonCon=     0 RMS=2.13D-11 Max=4.81D-10
 Linear equations converged to 1.000D-10 1.000D-09 after    15 iterations.
 FoFJK:  IHMeth= 1 ICntrl=     0 DoSepK=T KAlg= 1 I1Cent= 0 FoldK=F
 End of Minotr Frequency-dependent properties file   721 does not exist.
 End of Minotr Frequency-dependent properties file   722 does not exist.
 Calling FoFJK, ICntrl=      5127 FMM=F ISym2X=0 I1Cent= 0 IOpClX= 0 NMat=1 NMatS=1 NMatT=0.
 FoFJK:  IHMeth= 1 ICntrl=  5127 DoSepK=T KAlg= 1 I1Cent= 0 FoldK=F
 -------------------------------------------------------------------
 Center     Atomic                   Forces (Hartrees/Bohr)
 Number     Number              X              Y              Z
 -------------------------------------------------------------------
      1        6           0.000431952    0.000021164   -0.000194184
      2        7          -0.000235563    0.000066681    0.000048537
      3        8          -0.000216856   -0.000113105    0.000067891
      4        1          -0.000010074    0.000063319    0.000002038
      5        1           0.000058138   -0.000004667    0.000010265
      6        1          -0.000027597   -0.000033393    0.000065453
 -------------------------------------------------------------------
 Cartesian Forces:  Max     0.000431952 RMS     0.000142447

 GradGradGradGradGradGradGradGradGradGradGradGradGradGradGradGradGradGrad
 Berny optimization.
 Using GEDIIS/GDIIS optimizer.
 Internal  Forces:  Max     0.000243219 RMS     0.000095732
 Search for a local minimum.
 Step number   6 out of a maximum of   25
 All quantities printed in internal units (Hartrees-Bohrs-Radians)
 Mixed Optimization -- En-DIIS/RFO-DIIS
 Swaping is turned off.
 Update second derivatives using D2CorX and points    1    2    3    4    5
                                                      6
 DE= -1.13D-06 DEPred=-1.33D-06 R= 8.52D-01
 SS=  1.41D+00  RLast= 6.00D-03 DXNew= 7.8812D-01 1.7990D-02
 Trust test= 8.52D-01 RLast= 6.00D-03 DXMaxT set to 4.69D-01
 The second derivative matrix:
                          R1        R2        R3        R4        R5
           R1           0.67112
           R2           0.00110   0.62556
           R3           0.01944   0.01666   0.29242
           R4           0.00299  -0.01054   0.00498   0.42348
           R5          -0.00878   0.00565  -0.00256   0.00126   0.46186
           A1           0.04828   0.10847  -0.01769   0.00278  -0.00368
           A2           0.03963  -0.03857   0.00399   0.00395  -0.00523
           A3          -0.04914  -0.02825   0.01627   0.01122   0.00219
           A4           0.02400  -0.01644   0.00223   0.00126  -0.00463
           A5           0.00083  -0.00142  -0.00340  -0.00482   0.00204
           A6          -0.02484   0.01786   0.00117   0.00355   0.00259
           D1          -0.00191  -0.00223  -0.00003   0.00068  -0.00027
           D2          -0.00222  -0.00263  -0.00003   0.00080  -0.00032
           D3           0.00205   0.00239   0.00002  -0.00069   0.00027
           D4           0.00174   0.00199   0.00002  -0.00057   0.00022
                          A1        A2        A3        A4        A5
           A1           0.15481
           A2          -0.00100   0.15257
           A3           0.05092   0.01339   0.12146
           A4          -0.00063   0.00098   0.00655   0.16348
           A5          -0.00428  -0.00731   0.00370  -0.00463   0.16130
           A6           0.00491   0.00633  -0.01026   0.00115   0.00333
           D1           0.00337   0.00099  -0.00374   0.00090   0.00026
           D2           0.00395   0.00115  -0.00437   0.00105   0.00030
           D3          -0.00357  -0.00100   0.00394  -0.00092  -0.00028
           D4          -0.00300  -0.00084   0.00331  -0.00077  -0.00024
                          A6        D1        D2        D3        D4
           A6           0.15551
           D1          -0.00116   0.03637
           D2          -0.00135   0.00532   0.03804
           D3           0.00120  -0.00477  -0.00557   0.03682
           D4           0.00101  -0.00400  -0.00468   0.00419   0.03534
     Eigenvalues ---    0.03182   0.03182   0.04151   0.06556   0.13682
     Eigenvalues ---    0.16223   0.16605   0.29487   0.42338   0.46149
     Eigenvalues ---    0.65207   0.685521000.000001000.000001000.00000
 En-DIIS/RFO-DIIS IScMMF=        0 using points:     6    5    4    3
 RFO step:  Lambda=-2.35721199D-07.
 DIIS coeffs:      0.83302      0.62265     -0.54086      0.08520
 Iteration  1 RMS(Cart)=  0.00042738 RMS(Int)=  0.00000035
 Iteration  2 RMS(Cart)=  0.00000033 RMS(Int)=  0.00000011
 Variable       Old X    -DE/DX   Delta X   Delta X   Delta X     New X
                                  (DIIS)     (GDIIS)  (Total)
    R1        2.44767  -0.00022  -0.00016  -0.00020  -0.00036   2.44731
    R2        2.34609   0.00024   0.00025   0.00023   0.00048   2.34657
    R3        2.07155  -0.00003  -0.00012   0.00001  -0.00012   2.07143
    R4        1.90644  -0.00006   0.00006  -0.00020  -0.00015   1.90629
    R5        1.91638   0.00004  -0.00002   0.00011   0.00009   1.91647
    A1        2.18468   0.00000  -0.00005  -0.00019  -0.00024   2.18444
    A2        2.10083   0.00003   0.00061  -0.00021   0.00041   2.10123
    A3        1.99767  -0.00003  -0.00056   0.00040  -0.00016   1.99751
    A4        2.09950  -0.00004   0.00033  -0.00045  -0.00012   2.09938
    A5        2.09308   0.00006   0.00006   0.00031   0.00037   2.09345
    A6        2.09060  -0.00002  -0.00039   0.00014  -0.00025   2.09035
    D1       -0.00087   0.00006   0.00080   0.00015   0.00095   0.00008
    D2        3.14058   0.00007   0.00093   0.00018   0.00111  -3.14149
    D3       -3.14068  -0.00006  -0.00083  -0.00018  -0.00101   3.14150
    D4        0.00077  -0.00005  -0.00069  -0.00015  -0.00085  -0.00008
         Item               Value     Threshold  Converged?
 Maximum Force            0.000243     0.000450     YES
 RMS     Force            0.000096     0.000300     YES
 Maximum Displacement     0.001025     0.001800     YES
 RMS     Displacement     0.000427     0.001200     YES
 Predicted change in Energy=-2.700973D-07
 Optimization completed.
    -- Stationary point found.
                           ----------------------------
                           !   Optimized Parameters   !
                           ! (Angstroms and Degrees)  !
 --------------------------                            --------------------------
 ! Name  Definition              Value          Derivative Info.                !
 --------------------------------------------------------------------------------
 ! R1    R(1,2)                  1.2953         -DE/DX =   -0.0002              !
 ! R2    R(1,3)                  1.2415         -DE/DX =    0.0002              !
 ! R3    R(1,6)                  1.0962         -DE/DX =    0.0                 !
 ! R4    R(2,4)                  1.0088         -DE/DX =   -0.0001              !
 ! R5    R(2,5)                  1.0141         -DE/DX =    0.0                 !
 ! A1    A(2,1,3)              125.1731         -DE/DX =    0.0                 !
 ! A2    A(2,1,6)              120.3686         -DE/DX =    0.0                 !
 ! A3    A(3,1,6)              114.4582         -DE/DX =    0.0                 !
 ! A4    A(1,2,4)              120.2924         -DE/DX =    0.0                 !
 ! A5    A(1,2,5)              119.9249         -DE/DX =    0.0001              !
 ! A6    A(4,2,5)              119.7827         -DE/DX =    0.0                 !
 ! D1    D(3,1,2,4)             -0.0497         -DE/DX =    0.0001              !
 ! D2    D(3,1,2,5)           -180.0582         -DE/DX =    0.0001              !
 ! D3    D(6,1,2,4)            180.0525         -DE/DX =   -0.0001              !
 ! D4    D(6,1,2,5)              0.044          -DE/DX =   -0.0001              !
 --------------------------------------------------------------------------------
 GradGradGradGradGradGradGradGradGradGradGradGradGradGradGradGradGradGrad

                          Input orientation:                          
 ---------------------------------------------------------------------
 Center     Atomic      Atomic             Coordinates (Angstroms)
 Number     Number       Type             X           Y           Z
 ---------------------------------------------------------------------
      1          6           0       -0.100100    0.389323    0.000458
      2          7           0        1.071469   -0.163042    0.000261
      3          8           0       -1.179746   -0.223607   -0.000335
      4          1           0        1.160268   -1.167971    0.000168
      5          1           0        1.903872    0.416192    0.000072
      6          1           0       -0.198042    1.481155   -0.000307
 ---------------------------------------------------------------------
                    Distance matrix (angstroms):
                    1          2          3          4          5
     1  C    0.000000
     2  N    1.295253   0.000000
     3  O    1.241499   2.252030   0.000000
     4  H    2.003419   1.008844   2.523388   0.000000
     5  H    2.004152   1.014105   3.149293   1.750005   0.000000
     6  H    1.096216   2.077267   1.967221   2.977057   2.356308
                    6
     6  H    0.000000
 Symmetry turned off by external request.
 Stoichiometry    CH3NO
 Framework group  C1[X(CH3NO)]
 Deg. of freedom    12
 Full point group                 C1      NOp   1
 Rotational constants (GHZ):     74.9613292     11.6428228     10.0775947

 **********************************************************************

            Population analysis using the SCF density.

 **********************************************************************

 Alpha  occ. eigenvalues --  -19.16671 -14.43734 -10.35291  -1.11619  -1.01503
 Alpha  occ. eigenvalues --   -0.71854  -0.65201  -0.57135  -0.49243  -0.47708
 Alpha  occ. eigenvalues --   -0.34906  -0.32483
 Alpha virt. eigenvalues --   -0.00256   0.01904   0.03450   0.05125   0.06307
 Alpha virt. eigenvalues --    0.07628   0.08126   0.09331   0.10174   0.11620
 Alpha virt. eigenvalues --    0.12516   0.13687   0.17041   0.17856   0.18570
 Alpha virt. eigenvalues --    0.21269   0.22116   0.22740   0.23413   0.25774
 Alpha virt. eigenvalues --    0.27700   0.28009   0.30979   0.31715   0.32104
 Alpha virt. eigenvalues --    0.33130   0.34195   0.34697   0.36966   0.40055
 Alpha virt. eigenvalues --    0.40692   0.41475   0.44491   0.44790   0.48110
 Alpha virt. eigenvalues --    0.52874   0.53096   0.53984   0.54955   0.57333
 Alpha virt. eigenvalues --    0.58366   0.63253   0.67821   0.72494   0.72959
 Alpha virt. eigenvalues --    0.75167   0.75513   0.76171   0.76584   0.79364
 Alpha virt. eigenvalues --    0.81205   0.82031   0.85037   0.86865   0.87090
 Alpha virt. eigenvalues --    0.88048   0.91205   0.91849   0.93422   0.95247
 Alpha virt. eigenvalues --    0.95963   0.97636   0.98542   0.99479   1.02125
 Alpha virt. eigenvalues --    1.02867   1.04811   1.06377   1.10492   1.12115
 Alpha virt. eigenvalues --    1.12220   1.17302   1.20830   1.24119   1.25096
 Alpha virt. eigenvalues --    1.27754   1.30487   1.31198   1.32412   1.35902
 Alpha virt. eigenvalues --    1.41866   1.42127   1.48104   1.50175   1.55744
 Alpha virt. eigenvalues --    1.58635   1.60553   1.61936   1.72255   1.74774
 Alpha virt. eigenvalues --    1.79678   1.85016   1.85961   1.86500   1.86950
 Alpha virt. eigenvalues --    1.94185   1.97704   2.02896   2.08346   2.12142
 Alpha virt. eigenvalues --    2.17518   2.19081   2.21703   2.23824   2.26673
 Alpha virt. eigenvalues --    2.27108   2.32489   2.32733   2.34357   2.38815
 Alpha virt. eigenvalues --    2.44272   2.44349   2.47492   2.56448   2.56540
 Alpha virt. eigenvalues --    2.63042   2.68108   2.84468   2.86935   2.92676
 Alpha virt. eigenvalues --    2.95531   3.05341   3.13107   3.21890   3.31472
 Alpha virt. eigenvalues --    3.31919   3.36219   3.43031   3.47975   3.53621
 Alpha virt. eigenvalues --    3.63778   3.68307   3.74452   3.76772   3.83375
 Alpha virt. eigenvalues --    3.85485   3.87785   3.93076   3.97512   4.02129
 Alpha virt. eigenvalues --    4.04751   4.08893   4.11889   4.13919   4.17889
 Alpha virt. eigenvalues --    4.26074   4.28862   4.39870   4.41226   4.43866
 Alpha virt. eigenvalues --    4.44528   4.54532   4.58088   4.60013   4.69998
 Alpha virt. eigenvalues --    4.74129   4.76525   4.80986   4.92512   4.95401
 Alpha virt. eigenvalues --    4.99373   5.06789   5.17451   5.20692   5.24573
 Alpha virt. eigenvalues --    5.33614   5.34894   5.46805   5.51258   5.70663
 Alpha virt. eigenvalues --    5.72865   5.82814   5.84264   5.91130   6.01285
 Alpha virt. eigenvalues --    6.11841   6.26973   6.32089   6.41938   6.56133
 Alpha virt. eigenvalues --    6.61666   6.71162   6.74511   6.84455   6.88484
 Alpha virt. eigenvalues --    7.01301   7.15240   7.17412   7.23355   7.33223
 Alpha virt. eigenvalues --    7.43242   7.63004  14.23030  16.45688  17.26374
          Condensed to atoms (all electrons):
              1          2          3          4          5          6
     1  C    5.042096   0.393115   0.415751  -0.046394  -0.050907   0.261853
     2  N    0.393115   6.054564  -0.126358   0.411340   0.439163  -0.044110
     3  O    0.415751  -0.126358   8.296456   0.007840   0.000486  -0.035308
     4  H   -0.046394   0.411340   0.007840   0.575258  -0.077604   0.003107
     5  H   -0.050907   0.439163   0.000486  -0.077604   0.598926   0.005146
     6  H    0.261853  -0.044110  -0.035308   0.003107   0.005146   0.318461
 Mulliken atomic charges:
              1
     1  C   -0.015513
     2  N   -0.127714
     3  O   -0.558867
     4  H    0.126453
     5  H    0.084790
     6  H    0.490851
 Sum of Mulliken atomic charges =   0.00000
 Mulliken charges with hydrogens summed into heavy atoms:
              1
     1  C    0.475338
     2  N    0.083529
     3  O   -0.558867
 Sum of Mulliken charges with hydrogens summed into heavy atoms =   0.00000
 Electronic spatial extent (au):  <R**2>=            144.5165
 Charge=              0.0000 electrons
 Dipole moment (field-independent basis, Debye):
    X=              4.3954    Y=              0.9089    Z=              0.0007  Tot=              4.4884
 Quadrupole moment (field-independent basis, Debye-Ang):
   XX=            -18.3099   YY=            -15.4526   ZZ=            -19.0776
   XY=             -1.4558   XZ=             -0.0015   YZ=             -0.0007
 Traceless Quadrupole moment (field-independent basis, Debye-Ang):
   XX=             -0.6965   YY=              2.1608   ZZ=             -1.4642
   XY=             -1.4558   XZ=             -0.0015   YZ=             -0.0007
 Octapole moment (field-independent basis, Debye-Ang**2):
  XXX=             13.2984  YYY=             -1.9423  ZZZ=             -0.0063  XYY=              2.8206
  XXY=              0.8548  XXZ=             -0.0026  XZZ=             -1.1844  YZZ=             -0.2546
  YYZ=             -0.0029  XYZ=              0.0002
 Hexadecapole moment (field-independent basis, Debye-Ang**3):
 XXXX=           -111.5735 YYYY=            -34.9486 ZZZZ=            -19.0252 XXXY=              2.8716
 XXXZ=             -0.0145 YYYX=             -4.4929 YYYZ=             -0.0052 ZZZX=             -0.0132
 ZZZY=             -0.0018 XXYY=            -23.5572 XXZZ=            -25.5629 YYZZ=            -10.1824
 XXYZ=             -0.0005 YYXZ=             -0.0034 ZZXY=              0.1903
 N-N= 7.182923605715D+01 E-N=-5.420672428168D+02  KE= 1.689820671805D+02
 1\1\GINC-CLODOMIRA\FOpt\RTD-CAM-B3LYP-FC\Aug-CC-pVTZ\C1H3N1O1\DIEGOA\2
 7-Oct-2019\0\\# cam-b3lyp/aug-cc-pvtz opt nosymm td(root=6,nstates=20)
  int(grid=ultrafine)\\Title\\0,1\C,-0.1000997919,0.3893227759,0.000457
 5667\N,1.0714686229,-0.1630423764,0.0002614314\O,-1.1797462657,-0.2236
 071739,-0.0003346106\H,1.160267722,-1.1679707135,0.0001677806\H,1.9038
 722904,0.4161919481,0.0000723367\H,-0.1980415777,1.4811545399,-0.00030
 65048\\Version=EM64L-G09RevA.01\HF=-169.8917234\RMSD=4.754e-09\RMSF=1.
 424e-04\Dipole=1.2182681,0.3404134,-0.0002539\PG=C01 [X(C1H3N1O1)]\\@


 LET US LEARN TO DREAM, GENTLEMEN, THEN PERHAPS WE SHALL
 DISCOVER THE TRUTH;  BUT LET US BEWARE OF PUBLISHING
 OUR DREAMS ABROAD BEFORE THEY HAVE BEEN SCRUTINIZED
 BY OUR VIGILANT INTELLECT ... LET US ALWAYS ALLOW
 THE FRUIT TO HANG UNTIL IT IS RIPE.  UNRIPE FRUIT
 BRINGS EVEN THE GROWER BUT LITTLE PROFIT; IT DAMAGES
 THE HEALTH OF THOSE WHO CONSUME IT; IT ENDANGERS
 PARTICULARLY THE YOUTH WHO CANNOT YET DISTINGUISH
 BETWEEN RIPE AND UNRIPE FRUIT.

                                  -- KEKULE, 1890
 Job cpu time:  0 days  8 hours 24 minutes 47.4 seconds.
 File lengths (MBytes):  RWF=    108 Int=      0 D2E=      0 Chk=     28 Scr=      1
 Normal termination of Gaussian 09 at Sun Oct 27 17:18:17 2019.
