 Entering Gaussian System, Link 0=g09
 Input=td8-opt.com
 Output=td8-opt.log
 Initial command:
 /home/diegoa/progs/g09/l1.exe /home/diegoa/g09scratch/Gau-21632.inp -scrdir=/home/diegoa/g09scratch/
 Default is to use a total of   4 processors:
                                4 via shared-memory
                                1 via Linda
 Entering Link 1 = /home/diegoa/progs/g09/l1.exe PID=     21634.
  
 Copyright (c) 1988,1990,1992,1993,1995,1998,2003,2009, Gaussian, Inc.
                  All Rights Reserved.
  
 This is part of the Gaussian(R) 09 program.  It is based on
 the Gaussian(R) 03 system (copyright 2003, Gaussian, Inc.),
 the Gaussian(R) 98 system (copyright 1998, Gaussian, Inc.),
 the Gaussian(R) 94 system (copyright 1995, Gaussian, Inc.),
 the Gaussian 92(TM) system (copyright 1992, Gaussian, Inc.),
 the Gaussian 90(TM) system (copyright 1990, Gaussian, Inc.),
 the Gaussian 88(TM) system (copyright 1988, Gaussian, Inc.),
 the Gaussian 86(TM) system (copyright 1986, Carnegie Mellon
 University), and the Gaussian 82(TM) system (copyright 1983,
 Carnegie Mellon University). Gaussian is a federally registered
 trademark of Gaussian, Inc.
  
 This software contains proprietary and confidential information,
 including trade secrets, belonging to Gaussian, Inc.
  
 This software is provided under written license and may be
 used, copied, transmitted, or stored only in accord with that
 written license.
  
 The following legend is applicable only to US Government
 contracts under FAR:
  
                    RESTRICTED RIGHTS LEGEND
  
 Use, reproduction and disclosure by the US Government is
 subject to restrictions as set forth in subparagraphs (a)
 and (c) of the Commercial Computer Software - Restricted
 Rights clause in FAR 52.227-19.
  
 Gaussian, Inc.
 340 Quinnipiac St., Bldg. 40, Wallingford CT 06492
  
  
 ---------------------------------------------------------------
 Warning -- This program may not be used in any manner that
 competes with the business of Gaussian, Inc. or will provide
 assistance to any competitor of Gaussian, Inc.  The licensee
 of this program is prohibited from giving any competitor of
 Gaussian, Inc. access to this program.  By using this program,
 the user acknowledges that Gaussian, Inc. is engaged in the
 business of creating and licensing software in the field of
 computational chemistry and represents and warrants to the
 licensee that it is not a competitor of Gaussian, Inc. and that
 it will not use this program in any manner prohibited above.
 ---------------------------------------------------------------
  

 Cite this work as:
 Gaussian 09, Revision A.01,
 M. J. Frisch, G. W. Trucks, H. B. Schlegel, G. E. Scuseria, 
 M. A. Robb, J. R. Cheeseman, G. Scalmani, V. Barone, B. Mennucci, 
 G. A. Petersson, H. Nakatsuji, M. Caricato, X. Li, H. P. Hratchian, 
 A. F. Izmaylov, J. Bloino, G. Zheng, J. L. Sonnenberg, M. Hada, 
 M. Ehara, K. Toyota, R. Fukuda, J. Hasegawa, M. Ishida, T. Nakajima, 
 Y. Honda, O. Kitao, H. Nakai, T. Vreven, J. A. Montgomery, Jr., 
 J. E. Peralta, F. Ogliaro, M. Bearpark, J. J. Heyd, E. Brothers, 
 K. N. Kudin, V. N. Staroverov, R. Kobayashi, J. Normand, 
 K. Raghavachari, A. Rendell, J. C. Burant, S. S. Iyengar, J. Tomasi, 
 M. Cossi, N. Rega, J. M. Millam, M. Klene, J. E. Knox, J. B. Cross, 
 V. Bakken, C. Adamo, J. Jaramillo, R. Gomperts, R. E. Stratmann, 
 O. Yazyev, A. J. Austin, R. Cammi, C. Pomelli, J. W. Ochterski, 
 R. L. Martin, K. Morokuma, V. G. Zakrzewski, G. A. Voth, 
 P. Salvador, J. J. Dannenberg, S. Dapprich, A. D. Daniels, 
 O. Farkas, J. B. Foresman, J. V. Ortiz, J. Cioslowski, 
 and D. J. Fox, Gaussian, Inc., Wallingford CT, 2009.
 
 ******************************************
 Gaussian 09:  EM64L-G09RevA.01  8-May-2009
                27-Oct-2019 
 ******************************************
 %chk=td8-opt.chk
 %NProcShared=4
 Will use up to    4 processors via shared memory.
 Default route:  MP2=Direct MaxDisk=1000GB DenFit
 ----------------------------------------------------------------------
 # cam-b3lyp/aug-cc-pvtz opt nosymm td(root=8,nstates=20) int(grid=ultr
 afine)
 ----------------------------------------------------------------------
 1/14=-1,18=20,19=15,26=3,38=1/1,3;
 2/9=110,12=2,15=1,17=6,18=5,40=1/2;
 3/5=16,6=1,7=10,11=2,16=1,25=1,30=1,71=1,74=-40,75=-5,82=47/1,2,8,3;
 4//1;
 5/5=2,38=5/2;
 8/6=1,10=1,107=8,108=20/1;
 9/8=8,15=2,41=20,42=1/14;
 10/5=4,31=1/2;
 6/7=2,8=2,9=2,10=2/1;
 7/12=6,13=5,14=8,30=1/1,2,3,16;
 1/14=-1,18=20,19=15/3(2);
 2/9=110,15=1/2;
 99//99;
 2/9=110,15=1/2;
 3/5=16,6=1,7=10,11=2,16=1,25=1,30=1,71=1,74=-40,75=-5,82=47/1,2,8,3;
 4/5=5,16=3/1;
 5/5=2,38=5/2;
 8/6=1,10=1,107=8,108=20/1;
 9/8=8,15=2,41=20,42=1,49=4/14;
 10/5=4,31=1/2;
 7/12=6,13=5,14=8,30=1/1,2,3,16;
 1/14=-1,18=20,19=15/3(-8);
 2/9=110,15=1/2;
 6/7=2,8=2,9=2,10=2/1;
 99//99;
 -----
 Title
 -----
 Symbolic Z-matrix:
 Charge =  0 Multiplicity = 1
 6                    -0.15114   0.44404   0.00004 
 7                     1.08242  -0.13167   0.00018 
 8                    -1.11629  -0.32456  -0.00009 
 1                     1.08152  -1.15705   0.00008 
 1                     1.98398   0.36852   0.00012 
 1                    -0.22276   1.53277  0. 
 

 GradGradGradGradGradGradGradGradGradGradGradGradGradGradGradGradGradGrad
 Berny optimization.
 Initialization pass.
                           ----------------------------
                           !    Initial Parameters    !
                           ! (Angstroms and Degrees)  !
 --------------------------                            --------------------------
 ! Name  Definition              Value          Derivative Info.                !
 --------------------------------------------------------------------------------
 ! R1    R(1,2)                  1.3613         estimate D2E/DX2                !
 ! R2    R(1,3)                  1.2338         estimate D2E/DX2                !
 ! R3    R(1,6)                  1.0911         estimate D2E/DX2                !
 ! R4    R(2,4)                  1.0254         estimate D2E/DX2                !
 ! R5    R(2,5)                  1.031          estimate D2E/DX2                !
 ! A1    A(2,1,3)              116.4493         estimate D2E/DX2                !
 ! A2    A(2,1,6)              118.7823         estimate D2E/DX2                !
 ! A3    A(3,1,6)              124.7684         estimate D2E/DX2                !
 ! A4    A(1,2,4)              114.9685         estimate D2E/DX2                !
 ! A5    A(1,2,5)              125.9597         estimate D2E/DX2                !
 ! A6    A(4,2,5)              119.0718         estimate D2E/DX2                !
 ! D1    D(3,1,2,4)              0.0048         estimate D2E/DX2                !
 ! D2    D(3,1,2,5)            179.988          estimate D2E/DX2                !
 ! D3    D(6,1,2,4)           -179.9924         estimate D2E/DX2                !
 ! D4    D(6,1,2,5)             -0.0092         estimate D2E/DX2                !
 --------------------------------------------------------------------------------
 Trust Radius=3.00D-01 FncErr=1.00D-07 GrdErr=1.00D-06
 Number of steps in this run=  25 maximum allowed number of steps= 100.
 GradGradGradGradGradGradGradGradGradGradGradGradGradGradGradGradGradGrad

                          Input orientation:                          
 ---------------------------------------------------------------------
 Center     Atomic      Atomic             Coordinates (Angstroms)
 Number     Number       Type             X           Y           Z
 ---------------------------------------------------------------------
      1          6           0       -0.151143    0.444037    0.000037
      2          7           0        1.082419   -0.131671    0.000175
      3          8           0       -1.116290   -0.324557   -0.000091
      4          1           0        1.081522   -1.157049    0.000080
      5          1           0        1.983977    0.368516    0.000116
      6          1           0       -0.222763    1.532772   -0.000001
 ---------------------------------------------------------------------
                    Distance matrix (angstroms):
                    1          2          3          4          5
     1  C    0.000000
     2  N    1.361292   0.000000
     3  O    1.233793   2.207153   0.000000
     4  H    2.020628   1.025378   2.350196   0.000000
     5  H    2.136455   1.031016   3.176792   1.772505   0.000000
     6  H    1.091088   2.115153   2.061083   2.989364   2.495034
                    6
     6  H    0.000000
 Symmetry turned off by external request.
 Stoichiometry    CH3NO
 Framework group  C1[X(CH3NO)]
 Deg. of freedom    12
 Full point group                 C1      NOp   1
 Rotational constants (GHZ):     63.1902334     12.0681863     10.1329726
 Standard basis: Aug-CC-pVTZ (5D, 7F)
 Integral buffers will be    131072 words long.
 Raffenetti 2 integral format.
 Two-electron integral symmetry is turned off.
   207 basis functions,   297 primitive gaussians,   240 cartesian basis functions
    12 alpha electrons       12 beta electrons
       nuclear repulsion energy        71.1400304513 Hartrees.
 NAtoms=    6 NActive=    6 NUniq=    6 SFac= 7.50D-01 NAtFMM=   80 NAOKFM=F Big=F
 Standard density basis: Auto (5D, 7F)
   591 Density fitting functions
 One-electron integrals computed using PRISM.
 NBasis=   207 RedAO= T  NBF=   207
 NBsUse=   207 1.00D-06 NBFU=   207
 Harris functional with IExCor=20419 diagonalized for initial guess.
 ExpMin= 2.53D-02 ExpMax= 1.53D+04 ExpMxC= 5.22D+02 IAcc=3 IRadAn=         5 AccDes= 0.00D+00
 HarFok:  IExCor=20419 AccDes= 0.00D+00 IRadAn=         5 IDoV= 1
 ScaDFX=  1.000000  1.000000  1.000000  1.000000
 FoFCou: FMM=F IPFlag=           0 FMFlag=      100000 FMFlg1=           0
         NFxFlg=           0 DoJE=T BraDBF=F KetDBF=T FulRan=T
         Omega=  0.000000  0.000000  1.000000  0.000000  0.000000 ICntrl=     500 IOpCl=  0
         NMat0=    1 NMatS0=    1 NMatT0=    0 NMatD0=    1 NMtDS0=    0 NMtDT0=    0
         I1Cent=           4 NGrid=           0.
 Symmetry not used in FoFCou.
 Requested convergence on RMS density matrix=1.00D-08 within 128 cycles.
 Requested convergence on MAX density matrix=1.00D-06.
 Requested convergence on             energy=1.00D-06.
 No special actions if energy rises.
 FoFJK:  IHMeth= 1 ICntrl=     0 DoSepK=T KAlg= 1 I1Cent= 0 FoldK=F
 FoFJK:  IHMeth= 1 ICntrl=     0 DoSepK=T KAlg= 1 I1Cent= 0 FoldK=F
 FoFJK:  IHMeth= 1 ICntrl=     0 DoSepK=T KAlg= 1 I1Cent= 0 FoldK=F
 FoFJK:  IHMeth= 1 ICntrl=     0 DoSepK=T KAlg= 1 I1Cent= 0 FoldK=F
 FoFJK:  IHMeth= 1 ICntrl=     0 DoSepK=T KAlg= 1 I1Cent= 0 FoldK=F
 FoFJK:  IHMeth= 1 ICntrl=     0 DoSepK=T KAlg= 1 I1Cent= 0 FoldK=F
 FoFJK:  IHMeth= 1 ICntrl=     0 DoSepK=T KAlg= 1 I1Cent= 0 FoldK=F
 FoFJK:  IHMeth= 1 ICntrl=     0 DoSepK=T KAlg= 1 I1Cent= 0 FoldK=F
 FoFJK:  IHMeth= 1 ICntrl=     0 DoSepK=T KAlg= 1 I1Cent= 0 FoldK=F
 FoFJK:  IHMeth= 1 ICntrl=     0 DoSepK=T KAlg= 1 I1Cent= 0 FoldK=F
 FoFJK:  IHMeth= 1 ICntrl=     0 DoSepK=T KAlg= 1 I1Cent= 0 FoldK=F
 SCF Done:  E(RCAM-B3LYP) =  -169.891973521     A.U. after   11 cycles
             Convg  =    0.3828D-08             -V/T =  2.0065
 ExpMin= 2.53D-02 ExpMax= 1.53D+04 ExpMxC= 5.22D+02 IAcc=3 IRadAn=         5 AccDes= 0.00D+00
 HarFok:  IExCor=  205 AccDes= 0.00D+00 IRadAn=         5 IDoV=-2
 ScaDFX=  1.000000  1.000000  1.000000  1.000000
 Range of M.O.s used for correlation:     4   207
 NBasis=   207 NAE=    12 NBE=    12 NFC=     3 NFV=     0
 NROrb=    204 NOA=     9 NOB=     9 NVA=   195 NVB=   195

 **** Warning!!: The largest alpha MO coefficient is  0.41616953D+02

 Would need an additional   658600000 words for in-memory AO integral storage.
    80 initial guesses have been made.
 Convergence on wavefunction:    0.000001000000000
 Iteration     1 Dimension    80 NMult    80
 CISAX will form    80 AO SS matrices at one time.
 FoFJK:  IHMeth= 1 ICntrl=     0 DoSepK=T KAlg= 1 I1Cent= 0 FoldK=F
 FoFJK:  IHMeth= 1 ICntrl=     0 DoSepK=T KAlg= 1 I1Cent= 0 FoldK=F
 New state      1 was old state      6
 New state      3 was old state      1
 New state      4 was old state      3
 New state      5 was old state      4
 New state      6 was old state      5
 New state     11 was old state     12
 New state     12 was old state     13
 New state     13 was old state     11
 New state     15 was old state     16
 New state     16 was old state     15
 New state     19 was old state     20
 New state     20 was old state     19
 Iteration     2 Dimension   120 NMult   120
 FoFJK:  IHMeth= 1 ICntrl=     0 DoSepK=T KAlg= 1 I1Cent= 0 FoldK=F
 FoFJK:  IHMeth= 1 ICntrl=     0 DoSepK=T KAlg= 1 I1Cent= 0 FoldK=F
 New state      7 was old state      8
 New state      8 was old state      7
 New state     17 was old state     18
 New state     18 was old state     17
 Iteration     3 Dimension   160 NMult   160
 FoFJK:  IHMeth= 1 ICntrl=     0 DoSepK=T KAlg= 1 I1Cent= 0 FoldK=F
 FoFJK:  IHMeth= 1 ICntrl=     0 DoSepK=T KAlg= 1 I1Cent= 0 FoldK=F
 Iteration     4 Dimension   200 NMult   200
 FoFJK:  IHMeth= 1 ICntrl=     0 DoSepK=T KAlg= 1 I1Cent= 0 FoldK=F
 FoFJK:  IHMeth= 1 ICntrl=     0 DoSepK=T KAlg= 1 I1Cent= 0 FoldK=F
 Iteration     5 Dimension   240 NMult   240
 FoFJK:  IHMeth= 1 ICntrl=     0 DoSepK=T KAlg= 1 I1Cent= 0 FoldK=F
 FoFJK:  IHMeth= 1 ICntrl=     0 DoSepK=T KAlg= 1 I1Cent= 0 FoldK=F
 Iteration     6 Dimension   280 NMult   280
 FoFJK:  IHMeth= 1 ICntrl=     0 DoSepK=T KAlg= 1 I1Cent= 0 FoldK=F
 FoFJK:  IHMeth= 1 ICntrl=     0 DoSepK=T KAlg= 1 I1Cent= 0 FoldK=F
 Iteration     7 Dimension   312 NMult   312
 FoFJK:  IHMeth= 1 ICntrl=     0 DoSepK=T KAlg= 1 I1Cent= 0 FoldK=F
 FoFJK:  IHMeth= 1 ICntrl=     0 DoSepK=T KAlg= 1 I1Cent= 0 FoldK=F
 Davidson failed to converge within maximum sub-space dimensions.
  Restart with updated initial guess:
 Iteration     1 Dimension    56 NMult   368
 FoFJK:  IHMeth= 1 ICntrl=     0 DoSepK=T KAlg= 1 I1Cent= 0 FoldK=F
 FoFJK:  IHMeth= 1 ICntrl=     0 DoSepK=T KAlg= 1 I1Cent= 0 FoldK=F
 Iteration     2 Dimension    96 NMult   408
 FoFJK:  IHMeth= 1 ICntrl=     0 DoSepK=T KAlg= 1 I1Cent= 0 FoldK=F
 FoFJK:  IHMeth= 1 ICntrl=     0 DoSepK=T KAlg= 1 I1Cent= 0 FoldK=F
 Iteration     3 Dimension    98 NMult   410
 FoFJK:  IHMeth= 1 ICntrl=     0 DoSepK=T KAlg= 1 I1Cent= 0 FoldK=F
 FoFJK:  IHMeth= 1 ICntrl=     0 DoSepK=T KAlg= 1 I1Cent= 0 FoldK=F
 ***********************************************************************
 Excited states from <AA,BB:AA,BB> singles matrix:
 ***********************************************************************
 
 Ground to excited state transition electric dipole moments (Au):
       state          X           Y           Z        Dip. S.      Osc.
         1         0.0000      0.0000      0.0578      0.0033      0.0004
         2        -0.0001      0.0000      0.3111      0.0968      0.0154
         3         0.0682     -0.0218      0.0002      0.0051      0.0008
         4         0.6819      0.3677      0.0001      0.6003      0.1052
         5         0.0008      0.0000      0.0409      0.0017      0.0003
         6         0.8579     -0.4455      0.0001      0.9345      0.1681
         7         0.4622      0.2720      0.0001      0.2876      0.0541
         8         0.0002      0.0001     -0.1575      0.0248      0.0048
         9         0.0001      0.0000      0.1492      0.0223      0.0044
        10        -0.2607     -0.0268      0.0000      0.0687      0.0139
        11         0.1068     -0.1809     -0.0001      0.0441      0.0093
        12         0.0000     -0.0001      0.2301      0.0529      0.0113
        13        -0.0246     -0.0749      0.0001      0.0062      0.0013
        14         0.0000     -0.0001     -0.0883      0.0078      0.0017
        15        -0.0003      0.0000      0.0671      0.0045      0.0010
        16         0.3912      0.0464      0.0001      0.1552      0.0359
        17        -0.0009      0.0015     -0.1784      0.0318      0.0075
        18         0.2150     -0.2436     -0.0011      0.1055      0.0248
        19        -0.2594     -0.0472     -0.0002      0.0695      0.0164
        20         0.0000      0.0001     -0.0022      0.0000      0.0000
 Ground to excited state transition velocity dipole moments (Au):
       state          X           Y           Z        Dip. S.      Osc.
         1         0.0000      0.0000     -0.0121      0.0001      0.0005
         2         0.0000      0.0000     -0.0744      0.0055      0.0155
         3        -0.0160      0.0050     -0.0001      0.0003      0.0008
         4        -0.1788     -0.0966      0.0000      0.0413      0.1047
         5        -0.0002      0.0000     -0.0111      0.0001      0.0003
         6        -0.2311      0.1202      0.0000      0.0678      0.1675
         7        -0.1295     -0.0771      0.0000      0.0227      0.0538
         8        -0.0001      0.0000      0.0456      0.0021      0.0048
         9         0.0000      0.0000     -0.0432      0.0019      0.0042
        10         0.0767      0.0072      0.0000      0.0059      0.0130
        11        -0.0315      0.0570      0.0000      0.0042      0.0090
        12         0.0000      0.0000     -0.0745      0.0056      0.0116
        13         0.0058      0.0225      0.0000      0.0005      0.0011
        14         0.0000      0.0000      0.0293      0.0009      0.0017
        15         0.0001      0.0000     -0.0196      0.0004      0.0007
        16        -0.1365     -0.0147      0.0000      0.0188      0.0362
        17         0.0003     -0.0005      0.0628      0.0039      0.0075
        18        -0.0765      0.0854      0.0004      0.0131      0.0248
        19         0.0901      0.0178      0.0001      0.0084      0.0159
        20         0.0000      0.0000      0.0028      0.0000      0.0000
 Ground to excited state transition magnetic dipole moments (Au):
       state          X           Y           Z
         1        -0.8660     -0.5035     -0.0001
         2         0.0143      0.3857     -0.0002
         3        -0.0001      0.0002      0.4144
         4        -0.0001      0.0000      0.0964
         5         0.0146      0.0495      0.0001
         6        -0.0001      0.0000      0.3076
         7        -0.0001     -0.0002      0.5603
         8         0.0152      0.3756      0.0002
         9        -0.0723      0.1371      0.0000
        10        -0.0001      0.0001      0.0357
        11         0.0000      0.0002     -0.2295
        12         0.1467     -0.2484     -0.0001
        13         0.0000      0.0005      0.2024
        14        -0.0485     -0.5698      0.0001
        15         0.0940      0.0316      0.0000
        16         0.0001      0.0001     -0.1589
        17        -0.4057      0.1605     -0.0008
        18        -0.0028      0.0012      0.1258
        19        -0.0010      0.0006     -0.0154
        20        -0.8643      0.8088     -0.0002
 <0|del|b> * <b|rxdel|0> + <0|del|b> * <b|delr+rdel|0>
 Rotatory Strengths (R) in cgs (10**-40 erg-esu-cm/Gauss)
       state          XX          YY          ZZ    R(velocity)
         1         0.0013     -0.0080     -0.0104     -0.0057
 Total R(velocity) tensor for State=          1
                 1             2             3 
      1   0.125569D-02  0.589133D-02  0.167680D-05
      2   0.377930D-02 -0.802167D-02  0.000000D+00
      3  -0.163866D+02 -0.104652D+02 -0.103523D-01
         2         0.0377      0.0147      0.0001      0.0175
 Total R(velocity) tensor for State=          2
                 1             2             3 
      1   0.377353D-01 -0.155856D-01  0.921364D-05
      2   0.210199D-01  0.147422D-01  0.430934D-05
      3   0.556526D+00  0.705221D+00  0.103031D-03
         3        -0.0491     -0.0147      0.0027     -0.0204
 Total R(velocity) tensor for State=          3
                 1             2             3 
      1  -0.490584D-01  0.138232D-01  0.146230D+02
      2  -0.266592D-01 -0.147081D-01  0.604990D+01
      3  -0.328279D+00 -0.105392D+01  0.268342D-02
         4         0.0023      0.0285      0.0012      0.0107
 Total R(velocity) tensor for State=          4
                 1             2             3 
      1   0.230231D-02 -0.603153D-02  0.952189D+01
      2  -0.834717D-02  0.284817D-01 -0.701499D+02
      3  -0.707478D+01  0.131025D+02  0.119796D-02
         5        -0.0038     -0.0358      0.0274     -0.0041
 Total R(velocity) tensor for State=          5
                 1             2             3 
      1  -0.383717D-02  0.211683D-01  0.743755D-04
      2   0.228395D-02 -0.357541D-01 -0.469484D-04
      3  -0.146048D+01  0.384153D+00  0.274208D-01
         6        -0.0140      0.0279      0.0114      0.0084
 Total R(velocity) tensor for State=          6
                 1             2             3 
      1  -0.140182D-01 -0.142643D-02  0.137715D+03
      2   0.144783D-01  0.278814D-01  0.220287D+00
      3   0.168723D+02  0.324441D+02  0.114086D-01
         7        -0.0033     -0.0080      0.0331      0.0073
 Total R(velocity) tensor for State=          7
                 1             2             3 
      1  -0.332001D-02 -0.553761D-01  0.159506D+03
      2  -0.105289D-01 -0.798577D-02  0.671761D+02
      3  -0.210664D+01  0.353834D+01  0.331049D-01
         8        -0.0103      0.0093     -0.0124     -0.0045
 Total R(velocity) tensor for State=          8
                 1             2             3 
      1  -0.103314D-01  0.468067D-01  0.297263D-04
      2   0.566573D-02  0.934045D-02  0.153722D-04
      3   0.443522D+00 -0.143042D+02 -0.123997D-01
         9        -0.0039      0.0039      0.0018      0.0006
 Total R(velocity) tensor for State=          9
                 1             2             3 
      1  -0.387626D-02  0.122258D-01  0.184994D-05
      2   0.172763D-02  0.388882D-02 -0.239519D-05
      3  -0.168615D+01 -0.722667D+00  0.182081D-02
        10         0.0021     -0.0057     -0.0034     -0.0023
 Total R(velocity) tensor for State=         10
                 1             2             3 
      1   0.205557D-02 -0.107705D-01 -0.823114D+01
      2   0.102720D-02 -0.566766D-02 -0.390148D+01
      3  -0.211537D+01  0.225022D+02 -0.339709D-02
        11         0.0035      0.0006      0.0007      0.0016
 Total R(velocity) tensor for State=         11
                 1             2             3 
      1   0.348381D-02  0.122825D-01 -0.155657D+02
      2   0.234134D-01  0.585767D-03  0.185420D+02
      3  -0.983546D+00 -0.542987D+00  0.687205D-03
        12         0.0059     -0.0017      0.0014      0.0019
 Total R(velocity) tensor for State=         12
                 1             2             3 
      1   0.592099D-02 -0.678552D-02 -0.304664D-05
      2  -0.288517D-01 -0.171030D-02  0.000000D+00
      3   0.106933D+02  0.338255D+01  0.136023D-02
        13         0.0155     -0.0070      0.0082      0.0056
 Total R(velocity) tensor for State=         13
                 1             2             3 
      1   0.155189D-01 -0.478616D-02 -0.100821D+01
      2   0.318609D-02 -0.700750D-02 -0.764065D+01
      3   0.294968D+01 -0.754386D+00  0.817463D-02
        14        -0.0213      0.0086     -0.0119     -0.0082
 Total R(velocity) tensor for State=         14
                 1             2             3 
      1  -0.213163D-01  0.757949D-02 -0.235232D-05
      2  -0.121929D-02  0.859907D-02 -0.746163D-05
      3   0.663557D+01  0.117116D+02 -0.118940D-01
        15         0.0004      0.0033      0.0117      0.0051
 Total R(velocity) tensor for State=         15
                 1             2             3 
      1   0.384256D-03  0.170142D-02  0.142211D-05
      2  -0.603890D-03  0.333348D-02 -0.328889D-05
      3   0.267357D+01  0.167684D+01  0.116774D-01
        16         0.0012     -0.0094     -0.0086     -0.0056
 Total R(velocity) tensor for State=         16
                 1             2             3 
      1   0.118293D-02  0.941191D-02 -0.102922D+02
      2   0.285564D-02 -0.936089D-02 -0.863521D+01
      3   0.276585D+00 -0.256186D+01 -0.858992D-02
        17        -0.1088     -0.2293     -0.2077     -0.1820
 Total R(velocity) tensor for State=         17
                 1             2             3 
      1  -0.108847D+00 -0.838504D-01 -0.154655D-03
      2  -0.479946D+00 -0.229343D+00  0.532049D-03
      3   0.871521D+01 -0.187338D+02 -0.207676D+00
        18         0.1053      0.3622      0.2519      0.2398
 Total R(velocity) tensor for State=         18
                 1             2             3 
      1   0.105336D+00  0.948194D-01 -0.117627D+00
      2   0.456595D+00  0.362155D+00  0.101569D+02
      3  -0.161039D+01 -0.144253D+01  0.251894D+00
        19         0.0235     -0.1393     -0.0352     -0.0503
 Total R(velocity) tensor for State=         19
                 1             2             3 
      1   0.235489D-01 -0.458403D-01 -0.188873D+02
      2   0.539244D-01 -0.139317D+00 -0.343869D+02
      3   0.276397D+01 -0.139712D+02 -0.352306D-01
        20        -0.0362     -0.0106     -0.0297     -0.0255
 Total R(velocity) tensor for State=         20
                 1             2             3 
      1  -0.362397D-01 -0.103806D-01  0.000000D+00
      2  -0.371027D-01 -0.106261D-01  0.000000D+00
      3   0.195113D+01 -0.171733D+01 -0.297289D-01
 1/2[<0|r|b>*<b|rxdel|0> + (<0|rxdel|b>*<b|r|0>)*]
 Rotatory Strengths (R) in cgs (10**-40 erg-esu-cm/Gauss)
       state          XX          YY          ZZ     R(length)     R(au)
         1        -0.0199     -0.0037      0.0060     -0.0058      0.0000
         2         0.0007     -0.0032      0.0548      0.0175      0.0000
         3         0.0057      0.0035     -0.0699     -0.0202      0.0000
         4         0.0277      0.0091     -0.0047      0.0107      0.0000
         5        -0.0080      0.0002     -0.0043     -0.0041      0.0000
         6         0.0472     -0.0039     -0.0181      0.0084      0.0000
         7         0.0247      0.0384     -0.0413      0.0073      0.0000
         8        -0.0021     -0.0378      0.0266     -0.0044      0.0000
         9         0.0077     -0.0025     -0.0034      0.0006      0.0000
        10        -0.0094      0.0014      0.0008     -0.0024      0.0000
        11         0.0023      0.0221     -0.0192      0.0018      0.0000
        12        -0.0006     -0.0183      0.0235      0.0016      0.0000
        13        -0.0003      0.0269     -0.0078      0.0063      0.0000
        14        -0.0009     -0.0338      0.0083     -0.0088      0.0000
        15         0.0169     -0.0002     -0.0016      0.0050      0.0000
        16        -0.0245     -0.0018      0.0101     -0.0054      0.0000
        17        -0.2625     -0.1753     -0.1037     -0.1805     -0.0004
        18         0.4199      0.1990      0.0986      0.2392      0.0005
        19        -0.1748      0.0211     -0.0021     -0.0519     -0.0001
        20        -0.0164     -0.0580     -0.0003     -0.0249     -0.0001
  1/2[<0|del|b>*<b|r|0> + (<0|r|b>*<b|del|0>)*] (Au)
       state          X           Y           Z        Dip. S.   Osc.(frdel)
         1         0.0000      0.0000     -0.0007      0.0007      0.0005
         2         0.0000      0.0000     -0.0232      0.0232      0.0154
         3        -0.0011     -0.0001      0.0000      0.0012      0.0008
         4        -0.1220     -0.0355      0.0000      0.1575      0.1050
         5         0.0000      0.0000     -0.0005      0.0005      0.0003
         6        -0.1982     -0.0535      0.0000      0.2518      0.1678
         7        -0.0599     -0.0210      0.0000      0.0809      0.0539
         8         0.0000      0.0000     -0.0072      0.0072      0.0048
         9         0.0000      0.0000     -0.0064      0.0064      0.0043
        10        -0.0200     -0.0002      0.0000      0.0202      0.0135
        11        -0.0034     -0.0103      0.0000      0.0137      0.0091
        12         0.0000      0.0000     -0.0171      0.0171      0.0114
        13        -0.0001     -0.0017      0.0000      0.0018      0.0012
        14         0.0000      0.0000     -0.0026      0.0026      0.0017
        15         0.0000      0.0000     -0.0013      0.0013      0.0009
        16        -0.0534     -0.0007      0.0000      0.0541      0.0361
        17         0.0000      0.0000     -0.0112      0.0112      0.0075
        18        -0.0164     -0.0208      0.0000      0.0372      0.0248
        19        -0.0234     -0.0008      0.0000      0.0242      0.0161
        20         0.0000      0.0000      0.0000      0.0000      0.0000
 Ground to excited state transition densities written to RWF  633

 Excitation energies and oscillator strengths:
 
 Excited state symmetry could not be determined.
 Excited State   1:      Singlet-?Sym    5.3142 eV  233.31 nm  f=0.0004  <S**2>=0.000
      12 -> 16         0.66316
      12 -> 17        -0.20392
 
 Excited state symmetry could not be determined.
 Excited State   2:      Singlet-?Sym    6.5026 eV  190.67 nm  f=0.0154  <S**2>=0.000
      11 -> 13         0.66149
      11 -> 18         0.11276
      11 -> 19        -0.13166
      11 -> 20        -0.12425
 
 Excited state symmetry could not be determined.
 Excited State   3:      Singlet-?Sym    6.6614 eV  186.12 nm  f=0.0008  <S**2>=0.000
      11 -> 16         0.31514
      11 -> 17        -0.12521
      12 -> 13         0.57334
      12 -> 15         0.14676
      12 -> 19        -0.12212
 
 Excited state symmetry could not be determined.
 Excited State   4:      Singlet-?Sym    7.1544 eV  173.30 nm  f=0.1052  <S**2>=0.000
      11 -> 16         0.33147
      11 -> 17        -0.12175
      12 -> 13        -0.17396
      12 -> 14         0.52287
      12 -> 15        -0.11767
      12 -> 18         0.12875
      12 -> 21        -0.14997
 
 Excited state symmetry could not be determined.
 Excited State   5:      Singlet-?Sym    7.2939 eV  169.98 nm  f=0.0003  <S**2>=0.000
      11 -> 14         0.62759
      11 -> 15         0.19239
      11 -> 21        -0.20957
 
 Excited state symmetry could not be determined.
 Excited State   6:      Singlet-?Sym    7.3438 eV  168.83 nm  f=0.1681  <S**2>=0.000
      11 -> 16         0.41515
      11 -> 17        -0.17395
      12 -> 13        -0.21051
      12 -> 14        -0.41165
      12 -> 15        -0.21180
      12 -> 19         0.12933
 
 Excited state symmetry could not be determined.
 Excited State   7:      Singlet-?Sym    7.6714 eV  161.62 nm  f=0.0541  <S**2>=0.000
      11 -> 16         0.16646
      12 -> 13        -0.26850
      12 -> 15         0.56417
      12 -> 18        -0.19193
      12 -> 19        -0.12168
 
 Excited state symmetry could not be determined.
 Excited State   8:      Singlet-?Sym    7.8211 eV  158.52 nm  f=0.0048  <S**2>=0.000
      11 -> 14        -0.20618
      11 -> 15         0.62719
      11 -> 23        -0.16436
      11 -> 24        -0.10074
 This state for optimization and/or second-order correction.
 Copying the excited state density for this state as the 1-particle RhoCI density.
 
 Excited state symmetry could not be determined.
 Excited State   9:      Singlet-?Sym    8.0797 eV  153.45 nm  f=0.0044  <S**2>=0.000
      12 -> 16         0.20542
      12 -> 17         0.66598
 
 Excited state symmetry could not be determined.
 Excited State  10:      Singlet-?Sym    8.2784 eV  149.77 nm  f=0.0139  <S**2>=0.000
      11 -> 16         0.25181
      11 -> 17         0.65025
 
 Excited state symmetry could not be determined.
 Excited State  11:      Singlet-?Sym    8.5856 eV  144.41 nm  f=0.0093  <S**2>=0.000
      12 -> 15         0.26217
      12 -> 18         0.49073
      12 -> 19         0.38801
      12 -> 24        -0.11015
      12 -> 29         0.10466
 
 Excited state symmetry could not be determined.
 Excited State  12:      Singlet-?Sym    8.7122 eV  142.31 nm  f=0.0113  <S**2>=0.000
      11 -> 18         0.59341
      11 -> 19         0.25343
      11 -> 24        -0.21349
      11 -> 29         0.11177
 
 Excited state symmetry could not be determined.
 Excited State  13:      Singlet-?Sym    8.8287 eV  140.43 nm  f=0.0013  <S**2>=0.000
      12 -> 14         0.13649
      12 -> 18        -0.34742
      12 -> 19         0.47573
      12 -> 20        -0.32530
 
 Excited state symmetry could not be determined.
 Excited State  14:      Singlet-?Sym    8.9196 eV  139.00 nm  f=0.0017  <S**2>=0.000
      11 -> 13         0.11440
      11 -> 15         0.10554
      11 -> 18        -0.21183
      11 -> 19         0.59123
      11 -> 20        -0.21875
 
 Excited state symmetry could not be determined.
 Excited State  15:      Singlet-?Sym    9.3129 eV  133.13 nm  f=0.0010  <S**2>=0.000
      11 -> 13         0.18701
      11 -> 19         0.15606
      11 -> 20         0.60324
      11 -> 23        -0.14639
      11 -> 24         0.11627
 
 Excited state symmetry could not be determined.
 Excited State  16:      Singlet-?Sym    9.4527 eV  131.16 nm  f=0.0359  <S**2>=0.000
      12 -> 13         0.13018
      12 -> 18        -0.20756
      12 -> 19         0.18052
      12 -> 20         0.55258
      12 -> 21        -0.16757
      12 -> 23         0.21557
 
 Excited state symmetry could not be determined.
 Excited State  17:      Singlet-?Sym    9.5992 eV  129.16 nm  f=0.0075  <S**2>=0.000
       9 -> 16         0.27040
      11 -> 14         0.15793
      11 -> 20         0.13928
      11 -> 21         0.43677
      11 -> 23         0.34158
      11 -> 24        -0.15369
 
 Excited state symmetry could not be determined.
 Excited State  18:      Singlet-?Sym    9.6064 eV  129.06 nm  f=0.0248  <S**2>=0.000
      12 -> 14         0.17439
      12 -> 19         0.13299
      12 -> 20         0.19713
      12 -> 21         0.58012
      12 -> 23        -0.16148
      12 -> 24         0.17259
 
 Excited state symmetry could not be determined.
 Excited State  19:      Singlet-?Sym    9.6451 eV  128.55 nm  f=0.0164  <S**2>=0.000
      12 -> 21         0.26568
      12 -> 23         0.49844
      12 -> 24        -0.34820
      12 -> 26         0.13748
 
 Excited state symmetry could not be determined.
 Excited State  20:      Singlet-?Sym    9.6864 eV  128.00 nm  f=0.0000  <S**2>=0.000
       9 -> 16         0.55232
       9 -> 17        -0.16656
      11 -> 14        -0.11589
      11 -> 21        -0.31592
      12 -> 22         0.15074
 SavETr:  write IOETrn=   770 NScale= 10 NData=  16 NLR=1 LETran=     370.
 FoFJK:  IHMeth= 1 ICntrl=     0 DoSepK=T KAlg= 1 I1Cent= 0 FoldK=F
 FoFJK:  IHMeth= 1 ICntrl=     0 DoSepK=T KAlg= 1 I1Cent= 0 FoldK=F
          IDoAtm=111111
          Differentiating once with respect to electric field.
                with respect to dipole field.
          Differentiating once with respect to nuclear coordinates.
          There are     1 degrees of freedom in the 1st order CPHF.  IDoFFX=0.
 FoFJK:  IHMeth= 1 ICntrl=     0 DoSepK=T KAlg= 1 I1Cent= 0 FoldK=F
 LinEq1:  Iter=  0 NonCon=     1 RMS=1.95D-02 Max=2.48D-01
 AX will form     1 AO Fock derivatives at one time.
 FoFJK:  IHMeth= 1 ICntrl=     0 DoSepK=T KAlg= 1 I1Cent= 0 FoldK=F
 LinEq1:  Iter=  1 NonCon=     1 RMS=6.71D-03 Max=1.39D-01
 FoFJK:  IHMeth= 1 ICntrl=     0 DoSepK=T KAlg= 1 I1Cent= 0 FoldK=F
 LinEq1:  Iter=  2 NonCon=     1 RMS=4.47D-03 Max=7.50D-02
 FoFJK:  IHMeth= 1 ICntrl=     0 DoSepK=T KAlg= 1 I1Cent= 0 FoldK=F
 LinEq1:  Iter=  3 NonCon=     1 RMS=2.27D-03 Max=5.23D-02
 FoFJK:  IHMeth= 1 ICntrl=     0 DoSepK=T KAlg= 1 I1Cent= 0 FoldK=F
 LinEq1:  Iter=  4 NonCon=     1 RMS=8.95D-04 Max=1.86D-02
 FoFJK:  IHMeth= 1 ICntrl=     0 DoSepK=T KAlg= 1 I1Cent= 0 FoldK=F
 LinEq1:  Iter=  5 NonCon=     1 RMS=1.72D-04 Max=2.31D-03
 FoFJK:  IHMeth= 1 ICntrl=     0 DoSepK=T KAlg= 1 I1Cent= 0 FoldK=F
 LinEq1:  Iter=  6 NonCon=     1 RMS=3.27D-05 Max=4.52D-04
 FoFJK:  IHMeth= 1 ICntrl=     0 DoSepK=T KAlg= 1 I1Cent= 0 FoldK=F
 LinEq1:  Iter=  7 NonCon=     1 RMS=7.37D-06 Max=1.09D-04
 FoFJK:  IHMeth= 1 ICntrl=     0 DoSepK=T KAlg= 1 I1Cent= 0 FoldK=F
 LinEq1:  Iter=  8 NonCon=     1 RMS=1.85D-06 Max=2.72D-05
 FoFJK:  IHMeth= 1 ICntrl=     0 DoSepK=T KAlg= 1 I1Cent= 0 FoldK=F
 LinEq1:  Iter=  9 NonCon=     1 RMS=3.64D-07 Max=4.83D-06
 FoFJK:  IHMeth= 1 ICntrl=     0 DoSepK=T KAlg= 1 I1Cent= 0 FoldK=F
 LinEq1:  Iter= 10 NonCon=     1 RMS=7.25D-08 Max=8.64D-07
 FoFJK:  IHMeth= 1 ICntrl=     0 DoSepK=T KAlg= 1 I1Cent= 0 FoldK=F
 LinEq1:  Iter= 11 NonCon=     1 RMS=1.11D-08 Max=8.33D-08
 FoFJK:  IHMeth= 1 ICntrl=     0 DoSepK=T KAlg= 1 I1Cent= 0 FoldK=F
 LinEq1:  Iter= 12 NonCon=     1 RMS=2.21D-09 Max=3.07D-08
 FoFJK:  IHMeth= 1 ICntrl=     0 DoSepK=T KAlg= 1 I1Cent= 0 FoldK=F
 LinEq1:  Iter= 13 NonCon=     1 RMS=4.01D-10 Max=1.11D-08
 FoFJK:  IHMeth= 1 ICntrl=     0 DoSepK=T KAlg= 1 I1Cent= 0 FoldK=F
 LinEq1:  Iter= 14 NonCon=     1 RMS=8.51D-11 Max=2.27D-09
 FoFJK:  IHMeth= 1 ICntrl=     0 DoSepK=T KAlg= 1 I1Cent= 0 FoldK=F
 LinEq1:  Iter= 15 NonCon=     0 RMS=1.63D-11 Max=1.95D-10
 Linear equations converged to 1.000D-10 1.000D-09 after    15 iterations.
 FoFJK:  IHMeth= 1 ICntrl=     0 DoSepK=T KAlg= 1 I1Cent= 0 FoldK=F
 End of Minotr Frequency-dependent properties file   721 does not exist.
 End of Minotr Frequency-dependent properties file   722 does not exist.

 **********************************************************************

            Population analysis using the SCF density.

 **********************************************************************

 Alpha  occ. eigenvalues --  -19.17626 -14.42812 -10.36268  -1.12140  -0.98649
 Alpha  occ. eigenvalues --   -0.70992  -0.63417  -0.55981  -0.48973  -0.48342
 Alpha  occ. eigenvalues --   -0.34409  -0.33573
 Alpha virt. eigenvalues --    0.00006   0.02003   0.03456   0.03996   0.06433
 Alpha virt. eigenvalues --    0.07508   0.08208   0.09423   0.10449   0.11644
 Alpha virt. eigenvalues --    0.12339   0.13955   0.17059   0.17504   0.18625
 Alpha virt. eigenvalues --    0.21562   0.22007   0.22744   0.23146   0.25710
 Alpha virt. eigenvalues --    0.26911   0.28015   0.30527   0.31922   0.32482
 Alpha virt. eigenvalues --    0.32890   0.33959   0.35077   0.36381   0.39779
 Alpha virt. eigenvalues --    0.40892   0.40976   0.43486   0.44668   0.45809
 Alpha virt. eigenvalues --    0.51850   0.54006   0.54770   0.55048   0.57464
 Alpha virt. eigenvalues --    0.57580   0.62142   0.67555   0.72048   0.74071
 Alpha virt. eigenvalues --    0.74155   0.74853   0.76698   0.76920   0.78973
 Alpha virt. eigenvalues --    0.80727   0.81579   0.84494   0.86294   0.86586
 Alpha virt. eigenvalues --    0.87522   0.89350   0.90494   0.93193   0.94665
 Alpha virt. eigenvalues --    0.96068   0.97935   0.98062   1.00452   1.03200
 Alpha virt. eigenvalues --    1.03539   1.04902   1.08359   1.10487   1.12411
 Alpha virt. eigenvalues --    1.13117   1.18634   1.21959   1.23117   1.25777
 Alpha virt. eigenvalues --    1.26642   1.28461   1.31563   1.34311   1.37243
 Alpha virt. eigenvalues --    1.37420   1.40627   1.46331   1.46473   1.54662
 Alpha virt. eigenvalues --    1.57816   1.58545   1.61906   1.69524   1.70529
 Alpha virt. eigenvalues --    1.80906   1.83024   1.83996   1.86776   1.87499
 Alpha virt. eigenvalues --    1.92507   1.97248   2.01708   2.08275   2.13655
 Alpha virt. eigenvalues --    2.14828   2.17845   2.21666   2.23209   2.23865
 Alpha virt. eigenvalues --    2.28007   2.30428   2.32152   2.33741   2.36904
 Alpha virt. eigenvalues --    2.41415   2.44531   2.47585   2.54405   2.55387
 Alpha virt. eigenvalues --    2.62073   2.66467   2.76583   2.85826   2.91447
 Alpha virt. eigenvalues --    2.97429   3.07639   3.13646   3.19471   3.28763
 Alpha virt. eigenvalues --    3.30984   3.38020   3.38644   3.50098   3.51569
 Alpha virt. eigenvalues --    3.62790   3.66054   3.69962   3.73329   3.80882
 Alpha virt. eigenvalues --    3.83212   3.85144   3.92277   3.92380   4.01485
 Alpha virt. eigenvalues --    4.04597   4.05472   4.11646   4.12439   4.17848
 Alpha virt. eigenvalues --    4.19292   4.27713   4.35468   4.40095   4.42873
 Alpha virt. eigenvalues --    4.43489   4.48420   4.58092   4.61947   4.65952
 Alpha virt. eigenvalues --    4.69857   4.75711   4.82300   4.86667   4.98356
 Alpha virt. eigenvalues --    5.00153   5.05850   5.13719   5.15802   5.21251
 Alpha virt. eigenvalues --    5.22236   5.26852   5.42174   5.48422   5.68850
 Alpha virt. eigenvalues --    5.69028   5.76130   5.82614   5.84177   5.98458
 Alpha virt. eigenvalues --    6.11096   6.26866   6.31367   6.36977   6.55692
 Alpha virt. eigenvalues --    6.59233   6.65299   6.71811   6.83789   6.84967
 Alpha virt. eigenvalues --    6.91826   7.08354   7.13262   7.19269   7.32748
 Alpha virt. eigenvalues --    7.41566   7.52581  14.27053  15.81138  16.61331
          Condensed to atoms (all electrons):
              1          2          3          4          5          6
     1  C    4.974807   0.405227   0.450856  -0.033689  -0.039063   0.262976
     2  N    0.405227   6.164886  -0.132212   0.396094   0.400185  -0.052831
     3  O    0.450856  -0.132212   8.267796   0.006111   0.005471  -0.059531
     4  H   -0.033689   0.396094   0.006111   0.554442  -0.067263   0.005206
     5  H   -0.039063   0.400185   0.005471  -0.067263   0.592347   0.005894
     6  H    0.262976  -0.052831  -0.059531   0.005206   0.005894   0.338861
 Mulliken atomic charges:
              1
     1  C   -0.021115
     2  N   -0.181348
     3  O   -0.538491
     4  H    0.139100
     5  H    0.102429
     6  H    0.499426
 Sum of Mulliken atomic charges =   0.00000
 Mulliken charges with hydrogens summed into heavy atoms:
              1
     1  C    0.478311
     2  N    0.060180
     3  O   -0.538491
 Sum of Mulliken charges with hydrogens summed into heavy atoms =   0.00000
 Electronic spatial extent (au):  <R**2>=            144.2970
 Charge=              0.0000 electrons
 Dipole moment (field-independent basis, Debye):
    X=              3.7518    Y=              1.3212    Z=              0.0000  Tot=              3.9776
 Quadrupole moment (field-independent basis, Debye-Ang):
   XX=            -18.1865   YY=            -15.2766   ZZ=            -19.2447
   XY=             -1.5625   XZ=             -0.0005   YZ=             -0.0001
 Traceless Quadrupole moment (field-independent basis, Debye-Ang):
   XX=             -0.6172   YY=              2.2926   ZZ=             -1.6754
   XY=             -1.5625   XZ=             -0.0005   YZ=             -0.0001
 Octapole moment (field-independent basis, Debye-Ang**2):
  XXX=             11.8769  YYY=             -0.6514  ZZZ=             -0.0030  XYY=              1.9639
  XXY=              1.3979  XXZ=             -0.0004  XZZ=             -1.8654  YZZ=             -0.0778
  YYZ=             -0.0007  XYZ=              0.0001
 Hexadecapole moment (field-independent basis, Debye-Ang**3):
 XXXX=           -106.9604 YYYY=            -36.7483 ZZZZ=            -19.4242 XXXY=              1.4007
 XXXZ=             -0.0055 YYYX=             -5.5131 YYYZ=             -0.0006 ZZZX=             -0.0066
 ZZZY=             -0.0002 XXYY=            -24.2605 XXZZ=            -25.4907 YYZZ=            -10.6607
 XXYZ=              0.0001 YYXZ=             -0.0017 ZZXY=             -0.3673
 N-N= 7.114003045132D+01 E-N=-5.406056564102D+02  KE= 1.687915561437D+02
 Calling FoFJK, ICntrl=      5127 FMM=F ISym2X=0 I1Cent= 0 IOpClX= 0 NMat=1 NMatS=1 NMatT=0.
 FoFJK:  IHMeth= 1 ICntrl=  5127 DoSepK=T KAlg= 1 I1Cent= 0 FoldK=F
 -------------------------------------------------------------------
 Center     Atomic                   Forces (Hartrees/Bohr)
 Number     Number              X              Y              Z
 -------------------------------------------------------------------
      1        6          -0.001279420   -0.003046985   -0.000010366
      2        7          -0.002947775    0.000128590   -0.000022100
      3        8           0.007210025    0.005731069    0.000009432
      4        1           0.000484302    0.004488649    0.000005918
      5        1          -0.004140824   -0.001929288    0.000012965
      6        1           0.000673692   -0.005372034    0.000004152
 -------------------------------------------------------------------
 Cartesian Forces:  Max     0.007210025 RMS     0.003118236

 GradGradGradGradGradGradGradGradGradGradGradGradGradGradGradGradGradGrad
 Berny optimization.
 Internal  Forces:  Max     0.009210268 RMS     0.003716463
 Search for a local minimum.
 Step number   1 out of a maximum of   25
 All quantities printed in internal units (Hartrees-Bohrs-Radians)
 Mixed Optimization -- RFO/linear search
 Second derivative matrix not updated -- first step.
 The second derivative matrix:
                          R1        R2        R3        R4        R5
           R1           0.52687
           R2           0.00000   0.89524
           R3           0.00000   0.00000   0.34687
           R4           0.00000   0.00000   0.00000   0.43491
           R5           0.00000   0.00000   0.00000   0.00000   0.42626
           A1           0.00000   0.00000   0.00000   0.00000   0.00000
           A2           0.00000   0.00000   0.00000   0.00000   0.00000
           A3           0.00000   0.00000   0.00000   0.00000   0.00000
           A4           0.00000   0.00000   0.00000   0.00000   0.00000
           A5           0.00000   0.00000   0.00000   0.00000   0.00000
           A6           0.00000   0.00000   0.00000   0.00000   0.00000
           D1           0.00000   0.00000   0.00000   0.00000   0.00000
           D2           0.00000   0.00000   0.00000   0.00000   0.00000
           D3           0.00000   0.00000   0.00000   0.00000   0.00000
           D4           0.00000   0.00000   0.00000   0.00000   0.00000
                          A1        A2        A3        A4        A5
           A1           0.25000
           A2           0.00000   0.16000
           A3           0.00000   0.00000   0.16000
           A4           0.00000   0.00000   0.00000   0.16000
           A5           0.00000   0.00000   0.00000   0.00000   0.16000
           A6           0.00000   0.00000   0.00000   0.00000   0.00000
           D1           0.00000   0.00000   0.00000   0.00000   0.00000
           D2           0.00000   0.00000   0.00000   0.00000   0.00000
           D3           0.00000   0.00000   0.00000   0.00000   0.00000
           D4           0.00000   0.00000   0.00000   0.00000   0.00000
                          A6        D1        D2        D3        D4
           A6           0.16000
           D1           0.00000   0.02204
           D2           0.00000   0.00000   0.02204
           D3           0.00000   0.00000   0.00000   0.02204
           D4           0.00000   0.00000   0.00000   0.00000   0.02204
     Eigenvalues ---    0.02204   0.02204   0.02204   0.16000   0.16000
     Eigenvalues ---    0.16000   0.22000   0.34687   0.42626   0.43491
     Eigenvalues ---    0.52687   0.895241000.000001000.000001000.00000
 RFO step:  Lambda=-3.79313505D-04 EMin= 2.20381771D-02
 Linear search not attempted -- first point.
 Iteration  1 RMS(Cart)=  0.00936422 RMS(Int)=  0.00001376
 Iteration  2 RMS(Cart)=  0.00002020 RMS(Int)=  0.00000004
 Iteration  3 RMS(Cart)=  0.00000000 RMS(Int)=  0.00000004
 Variable       Old X    -DE/DX   Delta X   Delta X   Delta X     New X
                                 (Linear)    (Quad)   (Total)
    R1        2.57247  -0.00712   0.00000  -0.01351  -0.01351   2.55896
    R2        2.33153  -0.00921   0.00000  -0.01028  -0.01028   2.32125
    R3        2.06186  -0.00540   0.00000  -0.01556  -0.01556   2.04629
    R4        1.93768  -0.00449   0.00000  -0.01031  -0.01031   1.92737
    R5        1.94834  -0.00456   0.00000  -0.01068  -0.01068   1.93766
    A1        2.03242   0.00021   0.00000   0.00094   0.00094   2.03336
    A2        2.07314  -0.00043   0.00000  -0.00252  -0.00252   2.07062
    A3        2.17762   0.00023   0.00000   0.00159   0.00159   2.17920
    A4        2.00658   0.00083   0.00000   0.00517   0.00517   2.01175
    A5        2.19841  -0.00073   0.00000  -0.00454  -0.00454   2.19387
    A6        2.07819  -0.00010   0.00000  -0.00063  -0.00063   2.07756
    D1        0.00008   0.00000   0.00000   0.00006   0.00006   0.00015
    D2        3.14138   0.00002   0.00000   0.00073   0.00073  -3.14108
    D3       -3.14146  -0.00001   0.00000  -0.00049  -0.00049   3.14124
    D4       -0.00016   0.00000   0.00000   0.00017   0.00017   0.00001
         Item               Value     Threshold  Converged?
 Maximum Force            0.009210     0.000450     NO 
 RMS     Force            0.003716     0.000300     NO 
 Maximum Displacement     0.020837     0.001800     NO 
 RMS     Displacement     0.009362     0.001200     NO 
 Predicted change in Energy=-1.898104D-04
 GradGradGradGradGradGradGradGradGradGradGradGradGradGradGradGradGradGrad

                          Input orientation:                          
 ---------------------------------------------------------------------
 Center     Atomic      Atomic             Coordinates (Angstroms)
 Number     Number       Type             X           Y           Z
 ---------------------------------------------------------------------
      1          6           0       -0.148413    0.442581   -0.000152
      2          7           0        1.078128   -0.131270   -0.000017
      3          8           0       -1.110746   -0.320809    0.000052
      4          1           0        1.081543   -1.151185    0.000108
      5          1           0        1.972950    0.369393    0.000276
      6          1           0       -0.215740    1.523337    0.000050
 ---------------------------------------------------------------------
                    Distance matrix (angstroms):
                    1          2          3          4          5
     1  C    0.000000
     2  N    1.354144   0.000000
     3  O    1.228351   2.197064   0.000000
     4  H    2.013177   1.019921   2.344281   0.000000
     5  H    2.122626   1.025364   3.159994   1.762602   0.000000
     6  H    1.082852   2.100433   2.049856   2.972543   2.474258
                    6
     6  H    0.000000
 Symmetry turned off by external request.
 Stoichiometry    CH3NO
 Framework group  C1[X(CH3NO)]
 Deg. of freedom    12
 Full point group                 C1      NOp   1
 Rotational constants (GHZ):     63.9210715     12.1800025     10.2305892
 Standard basis: Aug-CC-pVTZ (5D, 7F)
 Integral buffers will be    131072 words long.
 Raffenetti 2 integral format.
 Two-electron integral symmetry is turned off.
   207 basis functions,   297 primitive gaussians,   240 cartesian basis functions
    12 alpha electrons       12 beta electrons
       nuclear repulsion energy        71.4954456172 Hartrees.
 NAtoms=    6 NActive=    6 NUniq=    6 SFac= 7.50D-01 NAtFMM=   80 NAOKFM=F Big=F
 Standard density basis: Auto (5D, 7F)
   591 Density fitting functions
 One-electron integrals computed using PRISM.
 NBasis=   207 RedAO= T  NBF=   207
 NBsUse=   207 1.00D-06 NBFU=   207
 Initial guess read from the read-write file.
 B after Tr=     0.000000    0.000000    0.000000
         Rot=    1.000000    0.000000    0.000000    0.000000 Ang=   0.00 deg.
 Harris functional with IExCor=20419 diagonalized for initial guess.
 ExpMin= 2.53D-02 ExpMax= 1.53D+04 ExpMxC= 5.22D+02 IAcc=3 IRadAn=         5 AccDes= 0.00D+00
 HarFok:  IExCor=20419 AccDes= 0.00D+00 IRadAn=         5 IDoV= 1
 ScaDFX=  1.000000  1.000000  1.000000  1.000000
 FoFCou: FMM=F IPFlag=           0 FMFlag=      100000 FMFlg1=           0
         NFxFlg=           0 DoJE=T BraDBF=F KetDBF=T FulRan=T
         Omega=  0.000000  0.000000  1.000000  0.000000  0.000000 ICntrl=     500 IOpCl=  0
         NMat0=    1 NMatS0=    1 NMatT0=    0 NMatD0=    1 NMtDS0=    0 NMtDT0=    0
         I1Cent=           4 NGrid=           0.
 Symmetry not used in FoFCou.
 Requested convergence on RMS density matrix=1.00D-08 within 128 cycles.
 Requested convergence on MAX density matrix=1.00D-06.
 Requested convergence on             energy=1.00D-06.
 No special actions if energy rises.
 FoFJK:  IHMeth= 1 ICntrl=     0 DoSepK=T KAlg= 1 I1Cent= 0 FoldK=F
 FoFJK:  IHMeth= 1 ICntrl=     0 DoSepK=T KAlg= 1 I1Cent= 0 FoldK=F
 FoFJK:  IHMeth= 1 ICntrl=     0 DoSepK=T KAlg= 1 I1Cent= 0 FoldK=F
 FoFJK:  IHMeth= 1 ICntrl=     0 DoSepK=T KAlg= 1 I1Cent= 0 FoldK=F
 FoFJK:  IHMeth= 1 ICntrl=     0 DoSepK=T KAlg= 1 I1Cent= 0 FoldK=F
 FoFJK:  IHMeth= 1 ICntrl=     0 DoSepK=T KAlg= 1 I1Cent= 0 FoldK=F
 FoFJK:  IHMeth= 1 ICntrl=     0 DoSepK=T KAlg= 1 I1Cent= 0 FoldK=F
 FoFJK:  IHMeth= 1 ICntrl=     0 DoSepK=T KAlg= 1 I1Cent= 0 FoldK=F
 FoFJK:  IHMeth= 1 ICntrl=     0 DoSepK=T KAlg= 1 I1Cent= 0 FoldK=F
 SCF Done:  E(RCAM-B3LYP) =  -169.892698244     A.U. after    9 cycles
             Convg  =    0.2704D-08             -V/T =  2.0061
 ExpMin= 2.53D-02 ExpMax= 1.53D+04 ExpMxC= 5.22D+02 IAcc=3 IRadAn=         5 AccDes= 0.00D+00
 HarFok:  IExCor=  205 AccDes= 0.00D+00 IRadAn=         5 IDoV=-2
 ScaDFX=  1.000000  1.000000  1.000000  1.000000
 Range of M.O.s used for correlation:     4   207
 NBasis=   207 NAE=    12 NBE=    12 NFC=     3 NFV=     0
 NROrb=    204 NOA=     9 NOB=     9 NVA=   195 NVB=   195

 **** Warning!!: The largest alpha MO coefficient is  0.41603940D+02

 Would need an additional   518800000 words for in-memory AO integral storage.
 Generating guess from densities on rwf.
 Convergence on wavefunction:    0.000001000000000
 Iteration     1 Dimension    40 NMult    40
 CISAX will form    40 AO SS matrices at one time.
 FoFJK:  IHMeth= 1 ICntrl=     0 DoSepK=T KAlg= 1 I1Cent= 0 FoldK=F
 FoFJK:  IHMeth= 1 ICntrl=     0 DoSepK=T KAlg= 1 I1Cent= 0 FoldK=F
 New state     17 was old state     18
 New state     18 was old state     17
 Iteration     2 Dimension    80 NMult    80
 FoFJK:  IHMeth= 1 ICntrl=     0 DoSepK=T KAlg= 1 I1Cent= 0 FoldK=F
 FoFJK:  IHMeth= 1 ICntrl=     0 DoSepK=T KAlg= 1 I1Cent= 0 FoldK=F
 Iteration     3 Dimension   120 NMult   120
 FoFJK:  IHMeth= 1 ICntrl=     0 DoSepK=T KAlg= 1 I1Cent= 0 FoldK=F
 FoFJK:  IHMeth= 1 ICntrl=     0 DoSepK=T KAlg= 1 I1Cent= 0 FoldK=F
 Iteration     4 Dimension   160 NMult   160
 FoFJK:  IHMeth= 1 ICntrl=     0 DoSepK=T KAlg= 1 I1Cent= 0 FoldK=F
 FoFJK:  IHMeth= 1 ICntrl=     0 DoSepK=T KAlg= 1 I1Cent= 0 FoldK=F
