Title                                                                   
Force     RTD-CAM-B3LYP-FC                                            Aug-CC-pVTZ         
Number of atoms                            I                6
Info1-9                                    I   N=           9
          14          14           0           0           0         100
           5         218           1
Charge                                     I                0
Multiplicity                               I                1
Number of electrons                        I               24
Number of alpha electrons                  I               12
Number of beta electrons                   I               12
Number of basis functions                  I              207
Number of independent functions            I              207
Number of point charges in /Mol/           I                0
Number of translation vectors              I                0
Atomic numbers                             I   N=           6
           6           7           8           1           1           1
Nuclear charges                            R   N=           6
  6.00000000E+00  7.00000000E+00  8.00000000E+00  1.00000000E+00  1.00000000E+00
  1.00000000E+00
Current cartesian coordinates              R   N=          18
 -3.03975677E-01  7.29927506E-01 -7.55890453E-06  2.03555252E+00 -2.96821173E-01
 -3.21253443E-05 -2.24511370E+00 -4.64581611E-01 -5.10226056E-05  2.21976680E+00
 -2.18822916E+00  2.39995219E-04  3.58717074E+00  7.90589604E-01  4.36526737E-04
 -2.71033971E-01  2.81248696E+00  1.51178091E-05
Force Field                                I                0
Int Atom Types                             I   N=           6
           0           0           0           0           0           0
MM charges                                 R   N=           6
  0.00000000E+00  0.00000000E+00  0.00000000E+00  0.00000000E+00  0.00000000E+00
  0.00000000E+00
Integer atomic weights                     I   N=           6
          12          14          16           1           1           1
Real atomic weights                        R   N=           6
  1.20000000E+01  1.40030740E+01  1.59949146E+01  1.00782504E+00  1.00782504E+00
  1.00782504E+00
Atom fragment info                         I   N=           6
           0           0           0           0           0           0
Atom residue num                           I   N=           6
           0           0           0           0           0           0
Nuclear spins                              I   N=           6
           0           2           0           1           1           1
Nuclear ZEff                               R   N=           6
 -3.60000000E+00 -4.55000000E+00 -5.60000000E+00 -1.00000000E+00 -1.00000000E+00
 -1.00000000E+00
Nuclear QMom                               R   N=           6
  0.00000000E+00  2.04400000E+00  0.00000000E+00  0.00000000E+00  0.00000000E+00
  0.00000000E+00
Nuclear GFac                               R   N=           6
  0.00000000E+00  4.03761000E-01  0.00000000E+00  2.79284600E+00  2.79284600E+00
  2.79284600E+00
MicOpt                                     I   N=           6
          -1          -1          -1          -1          -1          -1
Number of contracted shells                I               69
Number of primitive shells                 I              114
Pure/Cartesian d shells                    I                0
Pure/Cartesian f shells                    I                0
Highest angular momentum                   I                3
Largest degree of contraction              I                7
Shell types                                I   N=          69
           0           0           0           0           0           1
           1           1           1          -2          -2          -2
          -3          -3           0           0           0           0
           0           1           1           1           1          -2
          -2          -2          -3          -3           0           0
           0           0           0           1           1           1
           1          -2          -2          -2          -3          -3
           0           0           0           0           1           1
           1          -2          -2           0           0           0
           0           1           1           1          -2          -2
           0           0           0           0           1           1
           1          -2          -2
Number of primitives per shell             I   N=          69
           7           6           1           1           1           3
           1           1           1           1           1           1
           1           1           7           6           1           1
           1           3           1           1           1           1
           1           1           1           1           7           6
           1           1           1           3           1           1
           1           1           1           1           1           1
           3           1           1           1           1           1
           1           1           1           3           1           1
           1           1           1           1           1           1
           3           1           1           1           1           1
           1           1           1
Shell to atom map                          I   N=          69
           1           1           1           1           1           1
           1           1           1           1           1           1
           1           1           2           2           2           2
           2           2           2           2           2           2
           2           2           2           2           3           3
           3           3           3           3           3           3
           3           3           3           3           3           3
           4           4           4           4           4           4
           4           4           4           5           5           5
           5           5           5           5           5           5
           6           6           6           6           6           6
           6           6           6
Primitive exponents                        R   N=         114
  8.23600000E+03  1.23500000E+03  2.80800000E+02  7.92700000E+01  2.55900000E+01
  8.99700000E+00  3.31900000E+00  2.80800000E+02  7.92700000E+01  2.55900000E+01
  8.99700000E+00  3.31900000E+00  3.64300000E-01  9.05900000E-01  1.28500000E-01
  4.40200000E-02  1.87100000E+01  4.13300000E+00  1.20000000E+00  3.82700000E-01
  1.20900000E-01  3.56900000E-02  1.09700000E+00  3.18000000E-01  1.00000000E-01
  7.61000000E-01  2.68000000E-01  1.14200000E+04  1.71200000E+03  3.89300000E+02
  1.10000000E+02  3.55700000E+01  1.25400000E+01  4.64400000E+00  3.89300000E+02
  1.10000000E+02  3.55700000E+01  1.25400000E+01  4.64400000E+00  5.11800000E-01
  1.29300000E+00  1.78700000E-01  5.76000000E-02  2.66300000E+01  5.94800000E+00
  1.74200000E+00  5.55000000E-01  1.72500000E-01  4.91000000E-02  1.65400000E+00
  4.69000000E-01  1.51000000E-01  1.09300000E+00  3.64000000E-01  1.53300000E+04
  2.29900000E+03  5.22400000E+02  1.47300000E+02  4.75500000E+01  1.67600000E+01
  6.20700000E+00  5.22400000E+02  1.47300000E+02  4.75500000E+01  1.67600000E+01
  6.20700000E+00  6.88200000E-01  1.75200000E+00  2.38400000E-01  7.37600000E-02
  3.44600000E+01  7.74900000E+00  2.28000000E+00  7.15600000E-01  2.14000000E-01
  5.97400000E-02  2.31400000E+00  6.45000000E-01  2.14000000E-01  1.42800000E+00
  5.00000000E-01  3.38700000E+01  5.09500000E+00  1.15900000E+00  3.25800000E-01
  1.02700000E-01  2.52600000E-02  1.40700000E+00  3.88000000E-01  1.02000000E-01
  1.05700000E+00  2.47000000E-01  3.38700000E+01  5.09500000E+00  1.15900000E+00
  3.25800000E-01  1.02700000E-01  2.52600000E-02  1.40700000E+00  3.88000000E-01
  1.02000000E-01  1.05700000E+00  2.47000000E-01  3.38700000E+01  5.09500000E+00
  1.15900000E+00  3.25800000E-01  1.02700000E-01  2.52600000E-02  1.40700000E+00
  3.88000000E-01  1.02000000E-01  1.05700000E+00  2.47000000E-01
Contraction coefficients                   R   N=         114
  5.41978320E-04  4.19287382E-03  2.15221621E-02  8.35343220E-02  2.39582846E-01
  4.42852842E-01  3.51799562E-01 -5.94922494E-05 -1.14815831E-03 -1.00191374E-02
 -6.12194923E-02 -1.73269854E-01  1.07291519E+00  1.00000000E+00  1.00000000E+00
  1.00000000E+00  3.94263872E-02  2.44088985E-01  8.15492009E-01  1.00000000E+00
  1.00000000E+00  1.00000000E+00  1.00000000E+00  1.00000000E+00  1.00000000E+00
  1.00000000E+00  1.00000000E+00  5.34563860E-04  4.13435660E-03  2.12335358E-02
  8.25006224E-02  2.38138871E-01  4.42551547E-01  3.53757422E-01 -4.89867350E-05
 -1.19527323E-03 -1.03490714E-02 -6.48680190E-02 -1.71552477E-01  1.07289568E+00
  1.00000000E+00  1.00000000E+00  1.00000000E+00  3.98072123E-02  2.49002660E-01
  8.10479727E-01  1.00000000E+00  1.00000000E+00  1.00000000E+00  1.00000000E+00
  1.00000000E+00  1.00000000E+00  1.00000000E+00  1.00000000E+00  5.19808943E-04
  4.02025621E-03  2.07128267E-02  8.10105536E-02  2.35962985E-01  4.42653446E-01
  3.57064423E-01 -4.42115008E-05 -1.22591041E-03 -1.05517725E-02 -6.74452633E-02
 -1.71198607E-01  1.07329856E+00  1.00000000E+00  1.00000000E+00  1.00000000E+00
  4.11634896E-02  2.57762836E-01  8.02419274E-01  1.00000000E+00  1.00000000E+00
  1.00000000E+00  1.00000000E+00  1.00000000E+00  1.00000000E+00  1.00000000E+00
  1.00000000E+00  2.54948632E-02  1.90362766E-01  8.52162022E-01  1.00000000E+00
  1.00000000E+00  1.00000000E+00  1.00000000E+00  1.00000000E+00  1.00000000E+00
  1.00000000E+00  1.00000000E+00  2.54948632E-02  1.90362766E-01  8.52162022E-01
  1.00000000E+00  1.00000000E+00  1.00000000E+00  1.00000000E+00  1.00000000E+00
  1.00000000E+00  1.00000000E+00  1.00000000E+00  2.54948632E-02  1.90362766E-01
  8.52162022E-01  1.00000000E+00  1.00000000E+00  1.00000000E+00  1.00000000E+00
  1.00000000E+00  1.00000000E+00  1.00000000E+00  1.00000000E+00
Coordinates of each shell                  R   N=         207
 -3.03975677E-01  7.29927506E-01 -7.55890453E-06 -3.03975677E-01  7.29927506E-01
 -7.55890453E-06 -3.03975677E-01  7.29927506E-01 -7.55890453E-06 -3.03975677E-01
  7.29927506E-01 -7.55890453E-06 -3.03975677E-01  7.29927506E-01 -7.55890453E-06
 -3.03975677E-01  7.29927506E-01 -7.55890453E-06 -3.03975677E-01  7.29927506E-01
 -7.55890453E-06 -3.03975677E-01  7.29927506E-01 -7.55890453E-06 -3.03975677E-01
  7.29927506E-01 -7.55890453E-06 -3.03975677E-01  7.29927506E-01 -7.55890453E-06
 -3.03975677E-01  7.29927506E-01 -7.55890453E-06 -3.03975677E-01  7.29927506E-01
 -7.55890453E-06 -3.03975677E-01  7.29927506E-01 -7.55890453E-06 -3.03975677E-01
  7.29927506E-01 -7.55890453E-06  2.03555252E+00 -2.96821173E-01 -3.21253443E-05
  2.03555252E+00 -2.96821173E-01 -3.21253443E-05  2.03555252E+00 -2.96821173E-01
 -3.21253443E-05  2.03555252E+00 -2.96821173E-01 -3.21253443E-05  2.03555252E+00
 -2.96821173E-01 -3.21253443E-05  2.03555252E+00 -2.96821173E-01 -3.21253443E-05
  2.03555252E+00 -2.96821173E-01 -3.21253443E-05  2.03555252E+00 -2.96821173E-01
 -3.21253443E-05  2.03555252E+00 -2.96821173E-01 -3.21253443E-05  2.03555252E+00
 -2.96821173E-01 -3.21253443E-05  2.03555252E+00 -2.96821173E-01 -3.21253443E-05
  2.03555252E+00 -2.96821173E-01 -3.21253443E-05  2.03555252E+00 -2.96821173E-01
 -3.21253443E-05  2.03555252E+00 -2.96821173E-01 -3.21253443E-05 -2.24511370E+00
 -4.64581611E-01 -5.10226056E-05 -2.24511370E+00 -4.64581611E-01 -5.10226056E-05
 -2.24511370E+00 -4.64581611E-01 -5.10226056E-05 -2.24511370E+00 -4.64581611E-01
 -5.10226056E-05 -2.24511370E+00 -4.64581611E-01 -5.10226056E-05 -2.24511370E+00
 -4.64581611E-01 -5.10226056E-05 -2.24511370E+00 -4.64581611E-01 -5.10226056E-05
 -2.24511370E+00 -4.64581611E-01 -5.10226056E-05 -2.24511370E+00 -4.64581611E-01
 -5.10226056E-05 -2.24511370E+00 -4.64581611E-01 -5.10226056E-05 -2.24511370E+00
 -4.64581611E-01 -5.10226056E-05 -2.24511370E+00 -4.64581611E-01 -5.10226056E-05
 -2.24511370E+00 -4.64581611E-01 -5.10226056E-05 -2.24511370E+00 -4.64581611E-01
 -5.10226056E-05  2.21976680E+00 -2.18822916E+00  2.39995219E-04  2.21976680E+00
 -2.18822916E+00  2.39995219E-04  2.21976680E+00 -2.18822916E+00  2.39995219E-04
  2.21976680E+00 -2.18822916E+00  2.39995219E-04  2.21976680E+00 -2.18822916E+00
  2.39995219E-04  2.21976680E+00 -2.18822916E+00  2.39995219E-04  2.21976680E+00
 -2.18822916E+00  2.39995219E-04  2.21976680E+00 -2.18822916E+00  2.39995219E-04
  2.21976680E+00 -2.18822916E+00  2.39995219E-04  3.58717074E+00  7.90589604E-01
  4.36526737E-04  3.58717074E+00  7.90589604E-01  4.36526737E-04  3.58717074E+00
  7.90589604E-01  4.36526737E-04  3.58717074E+00  7.90589604E-01  4.36526737E-04
  3.58717074E+00  7.90589604E-01  4.36526737E-04  3.58717074E+00  7.90589604E-01
  4.36526737E-04  3.58717074E+00  7.90589604E-01  4.36526737E-04  3.58717074E+00
  7.90589604E-01  4.36526737E-04  3.58717074E+00  7.90589604E-01  4.36526737E-04
 -2.71033971E-01  2.81248696E+00  1.51178091E-05 -2.71033971E-01  2.81248696E+00
  1.51178091E-05 -2.71033971E-01  2.81248696E+00  1.51178091E-05 -2.71033971E-01
  2.81248696E+00  1.51178091E-05 -2.71033971E-01  2.81248696E+00  1.51178091E-05
 -2.71033971E-01  2.81248696E+00  1.51178091E-05 -2.71033971E-01  2.81248696E+00
  1.51178091E-05 -2.71033971E-01  2.81248696E+00  1.51178091E-05 -2.71033971E-01
  2.81248696E+00  1.51178091E-05
Density Number of contracted shells        I              120
Density Number of primitive shells         I              120
Density Pure/Cartesian d shells            I                0
Density Pure/Cartesian f shells            I                0
Density Highest angular momentum           I                4
Density Largest degree of contraction      I                1
Density Shell types                        I   N=         120
           0           0           0           0          -1          -2
          -1          -2          -1          -2          -1          -2
          -3          -4          -1          -2          -3          -4
          -1          -2          -3          -4          -1          -2
          -3          -4           0           0           0           0
          -1          -2          -1          -2          -1          -2
          -1          -2          -3          -4          -1          -2
          -3          -4          -1          -2          -3          -4
          -1          -2          -3          -4           0           0
           0           0          -1          -2          -1          -2
          -1          -2          -1          -2          -3          -4
          -1          -2          -3          -4          -1          -2
          -3          -4          -1          -2          -3          -4
           0           0          -1          -2          -3          -1
          -2          -3          -1          -2          -3          -1
          -2          -3           0           0          -1          -2
          -3          -1          -2          -3          -1          -2
          -3          -1          -2          -3           0           0
          -1          -2          -3          -1          -2          -3
          -1          -2          -3          -1          -2          -3
Density Number of primitives per shell     I   N=         120
           1           1           1           1           1           1
           1           1           1           1           1           1
           1           1           1           1           1           1
           1           1           1           1           1           1
           1           1           1           1           1           1
           1           1           1           1           1           1
           1           1           1           1           1           1
           1           1           1           1           1           1
           1           1           1           1           1           1
           1           1           1           1           1           1
           1           1           1           1           1           1
           1           1           1           1           1           1
           1           1           1           1           1           1
           1           1           1           1           1           1
           1           1           1           1           1           1
           1           1           1           1           1           1
           1           1           1           1           1           1
           1           1           1           1           1           1
           1           1           1           1           1           1
           1           1           1           1           1           1
Density Shell to atom map                  I   N=         120
           1           1           1           1           1           1
           1           1           1           1           1           1
           1           1           1           1           1           1
           1           1           1           1           1           1
           1           1           2           2           2           2
           2           2           2           2           2           2
           2           2           2           2           2           2
           2           2           2           2           2           2
           2           2           2           2           3           3
           3           3           3           3           3           3
           3           3           3           3           3           3
           3           3           3           3           3           3
           3           3           3           3           3           3
           4           4           4           4           4           4
           4           4           4           4           4           4
           4           4           5           5           5           5
           5           5           5           5           5           5
           5           5           5           5           6           6
           6           6           6           6           6           6
           6           6           6           6           6           6
Density Primitive exponents                R   N=         120
  1.64720000E+04  2.47000000E+03  5.61600000E+02  1.58540000E+02  4.37624908E+01
  4.37624908E+01  1.79940000E+01  1.79940000E+01  7.40740899E+00  7.40740899E+00
  1.95206014E+00  1.95206014E+00  1.95206014E+00  1.95206014E+00  6.07776462E-01
  6.07776462E-01  6.07776462E-01  6.07776462E-01  2.23286442E-01  2.23286442E-01
  2.23286442E-01  2.23286442E-01  7.92735467E-02  7.92735467E-02  7.92735467E-02
  7.92735467E-02  2.28400000E+04  3.42400000E+03  7.78600000E+02  2.20000000E+02
  6.15541745E+01  6.15541745E+01  2.50800000E+01  2.50800000E+01  1.05114246E+01
  1.05114246E+01  2.84106115E+00  2.84106115E+00  2.84106115E+00  2.84106115E+00
  8.53194518E-01  8.53194518E-01  8.53194518E-01  8.53194518E-01  3.25646851E-01
  3.25646851E-01  3.25646851E-01  3.25646851E-01  1.06360895E-01  1.06360895E-01
  1.06360895E-01  1.06360895E-01  3.06600000E+04  4.59800000E+03  1.04480000E+03
  2.94600000E+02  8.09585820E+01  8.09585820E+01  3.35200000E+01  3.35200000E+01
  1.38705505E+01  1.38705505E+01  3.81215125E+00  3.81215125E+00  3.81215125E+00
  3.81215125E+00  1.15998681E+00  1.15998681E+00  1.15998681E+00  1.15998681E+00
  4.51741519E-01  4.51741519E-01  4.51741519E-01  4.51741519E-01  1.32761778E-01
  1.32761778E-01  1.32761778E-01  1.32761778E-01  6.77400000E+01  1.01900000E+01
  2.49583948E+00  2.49583948E+00  2.49583948E+00  5.92685324E-01  5.92685324E-01
  5.92685324E-01  2.04698803E-01  2.04698803E-01  2.04698803E-01  5.05200000E-02
  5.05200000E-02  5.05200000E-02  6.77400000E+01  1.01900000E+01  2.49583948E+00
  2.49583948E+00  2.49583948E+00  5.92685324E-01  5.92685324E-01  5.92685324E-01
  2.04698803E-01  2.04698803E-01  2.04698803E-01  5.05200000E-02  5.05200000E-02
  5.05200000E-02  6.77400000E+01  1.01900000E+01  2.49583948E+00  2.49583948E+00
  2.49583948E+00  5.92685324E-01  5.92685324E-01  5.92685324E-01  2.04698803E-01
  2.04698803E-01  2.04698803E-01  5.05200000E-02  5.05200000E-02  5.05200000E-02
Density Contraction coefficients           R   N=         120
  1.00000000E+00  1.00000000E+00  1.00000000E+00  1.00000000E+00  1.00000000E+00
  1.00000000E+00  1.00000000E+00  1.00000000E+00  1.00000000E+00  1.00000000E+00
  1.00000000E+00  1.00000000E+00  1.00000000E+00  1.00000000E+00  1.00000000E+00
  1.00000000E+00  1.00000000E+00  1.00000000E+00  1.00000000E+00  1.00000000E+00
  1.00000000E+00  1.00000000E+00  1.00000000E+00  1.00000000E+00  1.00000000E+00
  1.00000000E+00  1.00000000E+00  1.00000000E+00  1.00000000E+00  1.00000000E+00
  1.00000000E+00  1.00000000E+00  1.00000000E+00  1.00000000E+00  1.00000000E+00
  1.00000000E+00  1.00000000E+00  1.00000000E+00  1.00000000E+00  1.00000000E+00
  1.00000000E+00  1.00000000E+00  1.00000000E+00  1.00000000E+00  1.00000000E+00
  1.00000000E+00  1.00000000E+00  1.00000000E+00  1.00000000E+00  1.00000000E+00
  1.00000000E+00  1.00000000E+00  1.00000000E+00  1.00000000E+00  1.00000000E+00
  1.00000000E+00  1.00000000E+00  1.00000000E+00  1.00000000E+00  1.00000000E+00
  1.00000000E+00  1.00000000E+00  1.00000000E+00  1.00000000E+00  1.00000000E+00
  1.00000000E+00  1.00000000E+00  1.00000000E+00  1.00000000E+00  1.00000000E+00
  1.00000000E+00  1.00000000E+00  1.00000000E+00  1.00000000E+00  1.00000000E+00
  1.00000000E+00  1.00000000E+00  1.00000000E+00  1.00000000E+00  1.00000000E+00
  1.00000000E+00  1.00000000E+00  1.00000000E+00  1.00000000E+00  1.00000000E+00
  1.00000000E+00  1.00000000E+00  1.00000000E+00  1.00000000E+00  1.00000000E+00
  1.00000000E+00  1.00000000E+00  1.00000000E+00  1.00000000E+00  1.00000000E+00
  1.00000000E+00  1.00000000E+00  1.00000000E+00  1.00000000E+00  1.00000000E+00
  1.00000000E+00  1.00000000E+00  1.00000000E+00  1.00000000E+00  1.00000000E+00
  1.00000000E+00  1.00000000E+00  1.00000000E+00  1.00000000E+00  1.00000000E+00
  1.00000000E+00  1.00000000E+00  1.00000000E+00  1.00000000E+00  1.00000000E+00
  1.00000000E+00  1.00000000E+00  1.00000000E+00  1.00000000E+00  1.00000000E+00
Density P(S=P) Contraction coefficients    R   N=         120
  0.00000000E+00  0.00000000E+00  0.00000000E+00  0.00000000E+00  1.00000000E+00
  0.00000000E+00  1.00000000E+00  0.00000000E+00  1.00000000E+00  0.00000000E+00
  1.00000000E+00  0.00000000E+00  0.00000000E+00  0.00000000E+00  1.00000000E+00
  0.00000000E+00  0.00000000E+00  0.00000000E+00  1.00000000E+00  0.00000000E+00
  0.00000000E+00  0.00000000E+00  1.00000000E+00  0.00000000E+00  0.00000000E+00
  0.00000000E+00  0.00000000E+00  0.00000000E+00  0.00000000E+00  0.00000000E+00
  1.00000000E+00  0.00000000E+00  1.00000000E+00  0.00000000E+00  1.00000000E+00
  0.00000000E+00  1.00000000E+00  0.00000000E+00  0.00000000E+00  0.00000000E+00
  1.00000000E+00  0.00000000E+00  0.00000000E+00  0.00000000E+00  1.00000000E+00
  0.00000000E+00  0.00000000E+00  0.00000000E+00  1.00000000E+00  0.00000000E+00
  0.00000000E+00  0.00000000E+00  0.00000000E+00  0.00000000E+00  0.00000000E+00
  0.00000000E+00  1.00000000E+00  0.00000000E+00  1.00000000E+00  0.00000000E+00
  1.00000000E+00  0.00000000E+00  1.00000000E+00  0.00000000E+00  0.00000000E+00
  0.00000000E+00  1.00000000E+00  0.00000000E+00  0.00000000E+00  0.00000000E+00
  1.00000000E+00  0.00000000E+00  0.00000000E+00  0.00000000E+00  1.00000000E+00
  0.00000000E+00  0.00000000E+00  0.00000000E+00  0.00000000E+00  0.00000000E+00
  1.00000000E+00  0.00000000E+00  0.00000000E+00  1.00000000E+00  0.00000000E+00
  0.00000000E+00  1.00000000E+00  0.00000000E+00  0.00000000E+00  1.00000000E+00
  0.00000000E+00  0.00000000E+00  0.00000000E+00  0.00000000E+00  1.00000000E+00
  0.00000000E+00  0.00000000E+00  1.00000000E+00  0.00000000E+00  0.00000000E+00
  1.00000000E+00  0.00000000E+00  0.00000000E+00  1.00000000E+00  0.00000000E+00
  0.00000000E+00  0.00000000E+00  0.00000000E+00  1.00000000E+00  0.00000000E+00
  0.00000000E+00  1.00000000E+00  0.00000000E+00  0.00000000E+00  1.00000000E+00
  0.00000000E+00  0.00000000E+00  1.00000000E+00  0.00000000E+00  0.00000000E+00
Density Coordinates of each shell          R   N=         360
 -3.03975677E-01  7.29927506E-01 -7.55890453E-06 -3.03975677E-01  7.29927506E-01
 -7.55890453E-06 -3.03975677E-01  7.29927506E-01 -7.55890453E-06 -3.03975677E-01
  7.29927506E-01 -7.55890453E-06 -3.03975677E-01  7.29927506E-01 -7.55890453E-06
 -3.03975677E-01  7.29927506E-01 -7.55890453E-06 -3.03975677E-01  7.29927506E-01
 -7.55890453E-06 -3.03975677E-01  7.29927506E-01 -7.55890453E-06 -3.03975677E-01
  7.29927506E-01 -7.55890453E-06 -3.03975677E-01  7.29927506E-01 -7.55890453E-06
 -3.03975677E-01  7.29927506E-01 -7.55890453E-06 -3.03975677E-01  7.29927506E-01
 -7.55890453E-06 -3.03975677E-01  7.29927506E-01 -7.55890453E-06 -3.03975677E-01
  7.29927506E-01 -7.55890453E-06 -3.03975677E-01  7.29927506E-01 -7.55890453E-06
 -3.03975677E-01  7.29927506E-01 -7.55890453E-06 -3.03975677E-01  7.29927506E-01
 -7.55890453E-06 -3.03975677E-01  7.29927506E-01 -7.55890453E-06 -3.03975677E-01
  7.29927506E-01 -7.55890453E-06 -3.03975677E-01  7.29927506E-01 -7.55890453E-06
 -3.03975677E-01  7.29927506E-01 -7.55890453E-06 -3.03975677E-01  7.29927506E-01
 -7.55890453E-06 -3.03975677E-01  7.29927506E-01 -7.55890453E-06 -3.03975677E-01
  7.29927506E-01 -7.55890453E-06 -3.03975677E-01  7.29927506E-01 -7.55890453E-06
 -3.03975677E-01  7.29927506E-01 -7.55890453E-06  2.03555252E+00 -2.96821173E-01
 -3.21253443E-05  2.03555252E+00 -2.96821173E-01 -3.21253443E-05  2.03555252E+00
 -2.96821173E-01 -3.21253443E-05  2.03555252E+00 -2.96821173E-01 -3.21253443E-05
  2.03555252E+00 -2.96821173E-01 -3.21253443E-05  2.03555252E+00 -2.96821173E-01
 -3.21253443E-05  2.03555252E+00 -2.96821173E-01 -3.21253443E-05  2.03555252E+00
 -2.96821173E-01 -3.21253443E-05  2.03555252E+00 -2.96821173E-01 -3.21253443E-05
  2.03555252E+00 -2.96821173E-01 -3.21253443E-05  2.03555252E+00 -2.96821173E-01
 -3.21253443E-05  2.03555252E+00 -2.96821173E-01 -3.21253443E-05  2.03555252E+00
 -2.96821173E-01 -3.21253443E-05  2.03555252E+00 -2.96821173E-01 -3.21253443E-05
  2.03555252E+00 -2.96821173E-01 -3.21253443E-05  2.03555252E+00 -2.96821173E-01
 -3.21253443E-05  2.03555252E+00 -2.96821173E-01 -3.21253443E-05  2.03555252E+00
 -2.96821173E-01 -3.21253443E-05  2.03555252E+00 -2.96821173E-01 -3.21253443E-05
  2.03555252E+00 -2.96821173E-01 -3.21253443E-05  2.03555252E+00 -2.96821173E-01
 -3.21253443E-05  2.03555252E+00 -2.96821173E-01 -3.21253443E-05  2.03555252E+00
 -2.96821173E-01 -3.21253443E-05  2.03555252E+00 -2.96821173E-01 -3.21253443E-05
  2.03555252E+00 -2.96821173E-01 -3.21253443E-05  2.03555252E+00 -2.96821173E-01
 -3.21253443E-05 -2.24511370E+00 -4.64581611E-01 -5.10226056E-05 -2.24511370E+00
 -4.64581611E-01 -5.10226056E-05 -2.24511370E+00 -4.64581611E-01 -5.10226056E-05
 -2.24511370E+00 -4.64581611E-01 -5.10226056E-05 -2.24511370E+00 -4.64581611E-01
 -5.10226056E-05 -2.24511370E+00 -4.64581611E-01 -5.10226056E-05 -2.24511370E+00
 -4.64581611E-01 -5.10226056E-05 -2.24511370E+00 -4.64581611E-01 -5.10226056E-05
 -2.24511370E+00 -4.64581611E-01 -5.10226056E-05 -2.24511370E+00 -4.64581611E-01
 -5.10226056E-05 -2.24511370E+00 -4.64581611E-01 -5.10226056E-05 -2.24511370E+00
 -4.64581611E-01 -5.10226056E-05 -2.24511370E+00 -4.64581611E-01 -5.10226056E-05
 -2.24511370E+00 -4.64581611E-01 -5.10226056E-05 -2.24511370E+00 -4.64581611E-01
 -5.10226056E-05 -2.24511370E+00 -4.64581611E-01 -5.10226056E-05 -2.24511370E+00
 -4.64581611E-01 -5.10226056E-05 -2.24511370E+00 -4.64581611E-01 -5.10226056E-05
 -2.24511370E+00 -4.64581611E-01 -5.10226056E-05 -2.24511370E+00 -4.64581611E-01
 -5.10226056E-05 -2.24511370E+00 -4.64581611E-01 -5.10226056E-05 -2.24511370E+00
 -4.64581611E-01 -5.10226056E-05 -2.24511370E+00 -4.64581611E-01 -5.10226056E-05
 -2.24511370E+00 -4.64581611E-01 -5.10226056E-05 -2.24511370E+00 -4.64581611E-01
 -5.10226056E-05 -2.24511370E+00 -4.64581611E-01 -5.10226056E-05  2.21976680E+00
 -2.18822916E+00  2.39995219E-04  2.21976680E+00 -2.18822916E+00  2.39995219E-04
  2.21976680E+00 -2.18822916E+00  2.39995219E-04  2.21976680E+00 -2.18822916E+00
  2.39995219E-04  2.21976680E+00 -2.18822916E+00  2.39995219E-04  2.21976680E+00
 -2.18822916E+00  2.39995219E-04  2.21976680E+00 -2.18822916E+00  2.39995219E-04
  2.21976680E+00 -2.18822916E+00  2.39995219E-04  2.21976680E+00 -2.18822916E+00
  2.39995219E-04  2.21976680E+00 -2.18822916E+00  2.39995219E-04  2.21976680E+00
 -2.18822916E+00  2.39995219E-04  2.21976680E+00 -2.18822916E+00  2.39995219E-04
  2.21976680E+00 -2.18822916E+00  2.39995219E-04  2.21976680E+00 -2.18822916E+00
  2.39995219E-04  3.58717074E+00  7.90589604E-01  4.36526737E-04  3.58717074E+00
  7.90589604E-01  4.36526737E-04  3.58717074E+00  7.90589604E-01  4.36526737E-04
  3.58717074E+00  7.90589604E-01  4.36526737E-04  3.58717074E+00  7.90589604E-01
  4.36526737E-04  3.58717074E+00  7.90589604E-01  4.36526737E-04  3.58717074E+00
  7.90589604E-01  4.36526737E-04  3.58717074E+00  7.90589604E-01  4.36526737E-04
  3.58717074E+00  7.90589604E-01  4.36526737E-04  3.58717074E+00  7.90589604E-01
  4.36526737E-04  3.58717074E+00  7.90589604E-01  4.36526737E-04  3.58717074E+00
  7.90589604E-01  4.36526737E-04  3.58717074E+00  7.90589604E-01  4.36526737E-04
  3.58717074E+00  7.90589604E-01  4.36526737E-04 -2.71033971E-01  2.81248696E+00
  1.51178091E-05 -2.71033971E-01  2.81248696E+00  1.51178091E-05 -2.71033971E-01
  2.81248696E+00  1.51178091E-05 -2.71033971E-01  2.81248696E+00  1.51178091E-05