 Entering Gaussian System, Link 0=g09
 Input=freq.com
 Output=freq.log
 Initial command:
 /home/diegoa/progs/g09/l1.exe /home/diegoa/g09scratch/Gau-22429.inp -scrdir=/home/diegoa/g09scratch/
 Default is to use a total of   4 processors:
                                4 via shared-memory
                                1 via Linda
 Entering Link 1 = /home/diegoa/progs/g09/l1.exe PID=     22435.
  
 Copyright (c) 1988,1990,1992,1993,1995,1998,2003,2009, Gaussian, Inc.
                  All Rights Reserved.
  
 This is part of the Gaussian(R) 09 program.  It is based on
 the Gaussian(R) 03 system (copyright 2003, Gaussian, Inc.),
 the Gaussian(R) 98 system (copyright 1998, Gaussian, Inc.),
 the Gaussian(R) 94 system (copyright 1995, Gaussian, Inc.),
 the Gaussian 92(TM) system (copyright 1992, Gaussian, Inc.),
 the Gaussian 90(TM) system (copyright 1990, Gaussian, Inc.),
 the Gaussian 88(TM) system (copyright 1988, Gaussian, Inc.),
 the Gaussian 86(TM) system (copyright 1986, Carnegie Mellon
 University), and the Gaussian 82(TM) system (copyright 1983,
 Carnegie Mellon University). Gaussian is a federally registered
 trademark of Gaussian, Inc.
  
 This software contains proprietary and confidential information,
 including trade secrets, belonging to Gaussian, Inc.
  
 This software is provided under written license and may be
 used, copied, transmitted, or stored only in accord with that
 written license.
  
 The following legend is applicable only to US Government
 contracts under FAR:
  
                    RESTRICTED RIGHTS LEGEND
  
 Use, reproduction and disclosure by the US Government is
 subject to restrictions as set forth in subparagraphs (a)
 and (c) of the Commercial Computer Software - Restricted
 Rights clause in FAR 52.227-19.
  
 Gaussian, Inc.
 340 Quinnipiac St., Bldg. 40, Wallingford CT 06492
  
  
 ---------------------------------------------------------------
 Warning -- This program may not be used in any manner that
 competes with the business of Gaussian, Inc. or will provide
 assistance to any competitor of Gaussian, Inc.  The licensee
 of this program is prohibited from giving any competitor of
 Gaussian, Inc. access to this program.  By using this program,
 the user acknowledges that Gaussian, Inc. is engaged in the
 business of creating and licensing software in the field of
 computational chemistry and represents and warrants to the
 licensee that it is not a competitor of Gaussian, Inc. and that
 it will not use this program in any manner prohibited above.
 ---------------------------------------------------------------
  

 Cite this work as:
 Gaussian 09, Revision A.01,
 M. J. Frisch, G. W. Trucks, H. B. Schlegel, G. E. Scuseria, 
 M. A. Robb, J. R. Cheeseman, G. Scalmani, V. Barone, B. Mennucci, 
 G. A. Petersson, H. Nakatsuji, M. Caricato, X. Li, H. P. Hratchian, 
 A. F. Izmaylov, J. Bloino, G. Zheng, J. L. Sonnenberg, M. Hada, 
 M. Ehara, K. Toyota, R. Fukuda, J. Hasegawa, M. Ishida, T. Nakajima, 
 Y. Honda, O. Kitao, H. Nakai, T. Vreven, J. A. Montgomery, Jr., 
 J. E. Peralta, F. Ogliaro, M. Bearpark, J. J. Heyd, E. Brothers, 
 K. N. Kudin, V. N. Staroverov, R. Kobayashi, J. Normand, 
 K. Raghavachari, A. Rendell, J. C. Burant, S. S. Iyengar, J. Tomasi, 
 M. Cossi, N. Rega, J. M. Millam, M. Klene, J. E. Knox, J. B. Cross, 
 V. Bakken, C. Adamo, J. Jaramillo, R. Gomperts, R. E. Stratmann, 
 O. Yazyev, A. J. Austin, R. Cammi, C. Pomelli, J. W. Ochterski, 
 R. L. Martin, K. Morokuma, V. G. Zakrzewski, G. A. Voth, 
 P. Salvador, J. J. Dannenberg, S. Dapprich, A. D. Daniels, 
 O. Farkas, J. B. Foresman, J. V. Ortiz, J. Cioslowski, 
 and D. J. Fox, Gaussian, Inc., Wallingford CT, 2009.
 
 ******************************************
 Gaussian 09:  EM64L-G09RevA.01  8-May-2009
                 8-Oct-2019 
 ******************************************
 %chk=freq.chk
 %NProcShared=4
 Will use up to    4 processors via shared memory.
 Default route:  MP2=Direct MaxDisk=1000GB DenFit
 ------------------------------------------------------
 # b3lyp/6-31G* opt Freq=(savenormalmodes,raman) nosymm
 ------------------------------------------------------
 1/14=-1,18=20,19=15,26=3,38=1/1,3;
 2/9=110,12=2,15=1,17=6,18=5,40=1/2;
 3/5=1,6=6,7=1,11=2,16=1,25=1,30=1,71=1,74=-5,82=47/1,2,3;
 4//1;
 5/5=2,38=5/2;
 6/7=2,8=2,9=2,10=2,28=1/1;
 7/30=1,92=1/1,2,3,16;
 1/14=-1,18=20,19=15/3(2);
 2/9=110,15=1/2;
 99//99;
 2/9=110,15=1/2;
 3/5=1,6=6,7=1,11=2,16=1,25=1,30=1,71=1,74=-5,82=47/1,2,3;
 4/5=5,16=3/1;
 5/5=2,38=5/2;
 7/30=1,92=1/1,2,3,16;
 1/14=-1,18=20,19=15/3(-5);
 2/9=110,15=1/2;
 6/7=2,8=2,9=2,10=2,19=2,28=1/1;
 99/9=1/99;
 -----
 Title
 -----
 Symbolic Z-matrix:
 Charge =  0 Multiplicity = 1
 6                    -0.16107   0.39     -0.00001 
 7                     1.0912   -0.16041  -0.00008 
 8                    -1.20883  -0.24568   0.00002 
 1                     1.18679  -1.17445   0.00015 
 1                     1.93016   0.41376   0.0003 
 1                    -0.11828   1.50895   0.00001 
 

 GradGradGradGradGradGradGradGradGradGradGradGradGradGradGradGradGradGrad
 Berny optimization.
 Initialization pass.
                           ----------------------------
                           !    Initial Parameters    !
                           ! (Angstroms and Degrees)  !
 --------------------------                            --------------------------
 ! Name  Definition              Value          Derivative Info.                !
 --------------------------------------------------------------------------------
 ! R1    R(1,2)                  1.3679         estimate D2E/DX2                !
 ! R2    R(1,3)                  1.2255         estimate D2E/DX2                !
 ! R3    R(1,6)                  1.1198         estimate D2E/DX2                !
 ! R4    R(2,4)                  1.0185         estimate D2E/DX2                !
 ! R5    R(2,5)                  1.0166         estimate D2E/DX2                !
 ! A1    A(2,1,3)              125.0277         estimate D2E/DX2                !
 ! A2    A(2,1,6)              111.5369         estimate D2E/DX2                !
 ! A3    A(3,1,6)              123.4354         estimate D2E/DX2                !
 ! A4    A(1,2,4)              119.1121         estimate D2E/DX2                !
 ! A5    A(1,2,5)              121.8858         estimate D2E/DX2                !
 ! A6    A(4,2,5)              119.0021         estimate D2E/DX2                !
 ! D1    D(3,1,2,4)             -0.0165         estimate D2E/DX2                !
 ! D2    D(3,1,2,5)           -179.9738         estimate D2E/DX2                !
 ! D3    D(6,1,2,4)            179.9841         estimate D2E/DX2                !
 ! D4    D(6,1,2,5)              0.0268         estimate D2E/DX2                !
 --------------------------------------------------------------------------------
 Trust Radius=3.00D-01 FncErr=1.00D-07 GrdErr=1.00D-06
 Number of steps in this run=  25 maximum allowed number of steps= 100.
 GradGradGradGradGradGradGradGradGradGradGradGradGradGradGradGradGradGrad

                          Input orientation:                          
 ---------------------------------------------------------------------
 Center     Atomic      Atomic             Coordinates (Angstroms)
 Number     Number       Type             X           Y           Z
 ---------------------------------------------------------------------
      1          6           0       -0.161072    0.390003   -0.000009
      2          7           0        1.091202   -0.160409   -0.000077
      3          8           0       -1.208832   -0.245677    0.000017
      4          1           0        1.186793   -1.174448    0.000146
      5          1           0        1.930160    0.413764    0.000299
      6          1           0       -0.118281    1.508950    0.000010
 ---------------------------------------------------------------------
                    Distance matrix (angstroms):
                    1          2          3          4          5
     1  C    0.000000
     2  N    1.367897   0.000000
     3  O    1.225516   2.301614   0.000000
     4  H    2.065005   1.018535   2.569365   0.000000
     5  H    2.091367   1.016624   3.207512   1.753571   0.000000
     6  H    1.119765   2.061458   2.065918   2.983931   2.322831
                    6
     6  H    0.000000
 Symmetry turned off by external request.
 Stoichiometry    CH3NO
 Framework group  C1[X(CH3NO)]
 Deg. of freedom    12
 Full point group                 C1      NOp   1
 Rotational constants (GHZ):     72.3753188     11.1404421      9.6543820
 Standard basis: 6-31G(d) (6D, 7F)
 Integral buffers will be    131072 words long.
 Raffenetti 2 integral format.
 Two-electron integral symmetry is turned off.
    51 basis functions,    96 primitive gaussians,    51 cartesian basis functions
    12 alpha electrons       12 beta electrons
       nuclear repulsion energy        70.5417424038 Hartrees.
 NAtoms=    6 NActive=    6 NUniq=    6 SFac= 7.50D-01 NAtFMM=   80 NAOKFM=F Big=F
 Standard density basis: Auto (5D, 7F)
   201 Density fitting functions
 One-electron integrals computed using PRISM.
 NBasis=    51 RedAO= T  NBF=    51
 NBsUse=    51 1.00D-06 NBFU=    51
 Harris functional with IExCor=  402 diagonalized for initial guess.
 ExpMin= 1.61D-01 ExpMax= 5.48D+03 ExpMxC= 8.25D+02 IAcc=1 IRadAn=         1 AccDes= 0.00D+00
 HarFok:  IExCor=  402 AccDes= 0.00D+00 IRadAn=         1 IDoV= 1
 ScaDFX=  1.000000  1.000000  1.000000  1.000000
 FoFCou: FMM=F IPFlag=           0 FMFlag=      100000 FMFlg1=           0
         NFxFlg=           0 DoJE=T BraDBF=F KetDBF=T FulRan=T
         Omega=  0.000000  0.000000  1.000000  0.000000  0.000000 ICntrl=     500 IOpCl=  0
         NMat0=    1 NMatS0=    1 NMatT0=    0 NMatD0=    1 NMtDS0=    0 NMtDT0=    0
         I1Cent=           4 NGrid=           0.
 Symmetry not used in FoFCou.
 Requested convergence on RMS density matrix=1.00D-08 within 128 cycles.
 Requested convergence on MAX density matrix=1.00D-06.
 Requested convergence on             energy=1.00D-06.
 No special actions if energy rises.
 Keep R1 ints in memory in canonical form, NReq=1823538.
 Integral accuracy reduced to 1.0D-05 until final iterations.
 Initial convergence to 1.0D-05 achieved.  Increase integral accuracy.
 SCF Done:  E(RB3LYP) =  -169.888476581     A.U. after   13 cycles
             Convg  =    0.8487D-08             -V/T =  2.0096

 **********************************************************************

            Population analysis using the SCF density.

 **********************************************************************

 Alpha  occ. eigenvalues --  -19.11826 -14.36822 -10.29250  -1.02668  -0.90697
 Alpha  occ. eigenvalues --   -0.62575  -0.55495  -0.47704  -0.40905  -0.39835
 Alpha  occ. eigenvalues --   -0.27206  -0.25498
 Alpha virt. eigenvalues --    0.02640   0.06903   0.10546   0.15935   0.26757
 Alpha virt. eigenvalues --    0.33746   0.53620   0.55379   0.64784   0.67461
 Alpha virt. eigenvalues --    0.68759   0.71065   0.83331   0.85829   0.86510
 Alpha virt. eigenvalues --    0.88144   1.00594   1.07475   1.21017   1.28592
 Alpha virt. eigenvalues --    1.37474   1.47464   1.51775   1.68362   1.77488
 Alpha virt. eigenvalues --    1.84974   1.85952   2.02631   2.08390   2.25929
 Alpha virt. eigenvalues --    2.28360   2.47605   2.62018   2.65360   2.89534
 Alpha virt. eigenvalues --    2.99240   3.73025   3.85120   4.17819
          Condensed to atoms (all electrons):
              1          2          3          4          5          6
     1  C    4.435691   0.253970   0.594916  -0.004374  -0.005531   0.360705
     2  N    0.253970   7.082587  -0.084216   0.282048   0.287673  -0.122846
     3  O    0.594916  -0.084216   7.984298   0.007175   0.003129  -0.054274
     4  H   -0.004374   0.282048   0.007175   0.381618  -0.018449   0.007515
     5  H   -0.005531   0.287673   0.003129  -0.018449   0.390049   0.006035
     6  H    0.360705  -0.122846  -0.054274   0.007515   0.006035   0.698805
 Mulliken atomic charges:
              1
     1  C    0.364624
     2  N   -0.699216
     3  O   -0.451028
     4  H    0.344467
     5  H    0.337094
     6  H    0.104060
 Sum of Mulliken atomic charges =   0.00000
 Mulliken charges with hydrogens summed into heavy atoms:
              1
     1  C    0.468684
     2  N   -0.017656
     3  O   -0.451028
 Sum of Mulliken charges with hydrogens summed into heavy atoms =   0.00000
 Electronic spatial extent (au):  <R**2>=            147.4749
 Charge=              0.0000 electrons
 Dipole moment (field-independent basis, Debye):
    X=              3.7987    Y=              0.7337    Z=              0.0010  Tot=              3.8689
 Quadrupole moment (field-independent basis, Debye-Ang):
   XX=            -17.2539   YY=            -15.0301   ZZ=            -18.4629
   XY=             -1.0696   XZ=              0.0019   YZ=             -0.0001
 Traceless Quadrupole moment (field-independent basis, Debye-Ang):
   XX=             -0.3383   YY=              1.8856   ZZ=             -1.5473
   XY=             -1.0696   XZ=              0.0019   YZ=             -0.0001
 Octapole moment (field-independent basis, Debye-Ang**2):
  XXX=             12.0656  YYY=             -2.7778  ZZZ=              0.0009  XYY=              2.6902
  XXY=              0.7866  XXZ=              0.0032  XZZ=             -1.5532  YZZ=             -0.3437
  YYZ=              0.0007  XYZ=              0.0000
 Hexadecapole moment (field-independent basis, Debye-Ang**3):
 XXXX=           -106.1644 YYYY=            -33.2297 ZZZZ=            -15.6320 XXXY=              2.7004
 XXXZ=              0.0062 YYYX=             -2.9761 YYYZ=             -0.0005 ZZZX=              0.0013
 ZZZY=             -0.0001 XXYY=            -22.5676 XXZZ=            -23.8174 YYZZ=             -9.0823
 XXYZ=              0.0002 YYXZ=              0.0010 ZZXY=              0.3330
 N-N= 7.054174240382D+01 E-N=-5.389247645371D+02  KE= 1.682678526106D+02
 Calling FoFJK, ICntrl=      2127 FMM=F ISym2X=0 I1Cent= 0 IOpClX= 0 NMat=1 NMatS=1 NMatT=0.
 -------------------------------------------------------------------
 Center     Atomic                   Forces (Hartrees/Bohr)
 Number     Number              X              Y              Z
 -------------------------------------------------------------------
      1        6          -0.006556056   -0.003569365    0.000006805
      2        7          -0.000106713   -0.001009308    0.000002112
      3        8           0.014247399    0.008740860   -0.000003217
      4        1          -0.000542290    0.006476445   -0.000000843
      5        1          -0.005748573   -0.003707772   -0.000003006
      6        1          -0.001293767   -0.006930860   -0.000001851
 -------------------------------------------------------------------
 Cartesian Forces:  Max     0.014247399 RMS     0.005136396

 GradGradGradGradGradGradGradGradGradGradGradGradGradGradGradGradGradGrad
 Berny optimization.
 Internal  Forces:  Max     0.016714304 RMS     0.005556738
 Search for a local minimum.
 Step number   1 out of a maximum of   25
 All quantities printed in internal units (Hartrees-Bohrs-Radians)
 Mixed Optimization -- RFO/linear search
 Second derivative matrix not updated -- first step.
 The second derivative matrix:
                          R1        R2        R3        R4        R5
           R1           0.51383
           R2           0.00000   0.92980
           R3           0.00000   0.00000   0.31588
           R4           0.00000   0.00000   0.00000   0.44573
           R5           0.00000   0.00000   0.00000   0.00000   0.44881
           A1           0.00000   0.00000   0.00000   0.00000   0.00000
           A2           0.00000   0.00000   0.00000   0.00000   0.00000
           A3           0.00000   0.00000   0.00000   0.00000   0.00000
           A4           0.00000   0.00000   0.00000   0.00000   0.00000
           A5           0.00000   0.00000   0.00000   0.00000   0.00000
           A6           0.00000   0.00000   0.00000   0.00000   0.00000
           D1           0.00000   0.00000   0.00000   0.00000   0.00000
           D2           0.00000   0.00000   0.00000   0.00000   0.00000
           D3           0.00000   0.00000   0.00000   0.00000   0.00000
           D4           0.00000   0.00000   0.00000   0.00000   0.00000
                          A1        A2        A3        A4        A5
           A1           0.25000
           A2           0.00000   0.16000
           A3           0.00000   0.00000   0.16000
           A4           0.00000   0.00000   0.00000   0.16000
           A5           0.00000   0.00000   0.00000   0.00000   0.16000
           A6           0.00000   0.00000   0.00000   0.00000   0.00000
           D1           0.00000   0.00000   0.00000   0.00000   0.00000
           D2           0.00000   0.00000   0.00000   0.00000   0.00000
           D3           0.00000   0.00000   0.00000   0.00000   0.00000
           D4           0.00000   0.00000   0.00000   0.00000   0.00000
                          A6        D1        D2        D3        D4
           A6           0.16000
           D1           0.00000   0.02116
           D2           0.00000   0.00000   0.02116
           D3           0.00000   0.00000   0.00000   0.02116
           D4           0.00000   0.00000   0.00000   0.00000   0.02116
     Eigenvalues ---    0.02116   0.02116   0.02116   0.16000   0.16000
     Eigenvalues ---    0.16000   0.22000   0.31588   0.44573   0.44881
     Eigenvalues ---    0.51383   0.929801000.000001000.000001000.00000
 RFO step:  Lambda=-7.54264344D-04 EMin= 2.11643496D-02
 Linear search not attempted -- first point.
 Iteration  1 RMS(Cart)=  0.01130085 RMS(Int)=  0.00002634
 Iteration  2 RMS(Cart)=  0.00003369 RMS(Int)=  0.00000000
 Iteration  3 RMS(Cart)=  0.00000000 RMS(Int)=  0.00000000
 Variable       Old X    -DE/DX   Delta X   Delta X   Delta X     New X
                                 (Linear)    (Quad)   (Total)
    R1        2.58495  -0.00656   0.00000  -0.01276  -0.01276   2.57219
    R2        2.31589  -0.01671   0.00000  -0.01796  -0.01796   2.29793
    R3        2.11605  -0.00698   0.00000  -0.02203  -0.02203   2.09402
    R4        1.92475  -0.00650   0.00000  -0.01456  -0.01456   1.91019
    R5        1.92114  -0.00684   0.00000  -0.01521  -0.01521   1.90593
    A1        2.18215  -0.00060   0.00000  -0.00272  -0.00272   2.17943
    A2        1.94669   0.00139   0.00000   0.00813   0.00813   1.95482
    A3        2.15435  -0.00079   0.00000  -0.00541  -0.00541   2.14894
    A4        2.07890   0.00021   0.00000   0.00130   0.00130   2.08020
    A5        2.12731  -0.00029   0.00000  -0.00177  -0.00177   2.12553
    A6        2.07698   0.00008   0.00000   0.00047   0.00047   2.07745
    D1       -0.00029   0.00000   0.00000  -0.00013  -0.00013  -0.00041
    D2       -3.14114   0.00000   0.00000  -0.00012  -0.00012  -3.14126
    D3        3.14132   0.00000   0.00000   0.00008   0.00008   3.14139
    D4        0.00047   0.00000   0.00000   0.00008   0.00008   0.00055
         Item               Value     Threshold  Converged?
 Maximum Force            0.016714     0.000450     NO 
 RMS     Force            0.005557     0.000300     NO 
 Maximum Displacement     0.024994     0.001800     NO 
 RMS     Displacement     0.011303     0.001200     NO 
 Predicted change in Energy=-3.777070D-04
 GradGradGradGradGradGradGradGradGradGradGradGradGradGradGradGradGradGrad

                          Input orientation:                          
 ---------------------------------------------------------------------
 Center     Atomic      Atomic             Coordinates (Angstroms)
 Number     Number       Type             X           Y           Z
 ---------------------------------------------------------------------
      1          6           0       -0.156265    0.390772    0.000050
      2          7           0        1.088591   -0.159732   -0.000069
      3          8           0       -1.195606   -0.240460   -0.000013
      4          1           0        1.182499   -1.166192    0.000143
      5          1           0        1.921180    0.409496    0.000280
      6          1           0       -0.120429    1.498299   -0.000006
 ---------------------------------------------------------------------
                    Distance matrix (angstroms):
                    1          2          3          4          5
     1  C    0.000000
     2  N    1.361147   0.000000
     3  O    1.216011   2.285623   0.000000
     4  H    2.053394   1.010832   2.551933   0.000000
     5  H    2.077530   1.008576   3.183834   1.740242   0.000000
     6  H    1.108106   2.052022   2.044331   2.965996   2.313798
                    6
     6  H    0.000000
 Symmetry turned off by external request.
 Stoichiometry    CH3NO
 Framework group  C1[X(CH3NO)]
 Deg. of freedom    12
 Full point group                 C1      NOp   1
 Rotational constants (GHZ):     73.2701862     11.2966214      9.7875938
 Standard basis: 6-31G(d) (6D, 7F)
 Integral buffers will be    131072 words long.
 Raffenetti 2 integral format.
 Two-electron integral symmetry is turned off.
    51 basis functions,    96 primitive gaussians,    51 cartesian basis functions
    12 alpha electrons       12 beta electrons
       nuclear repulsion energy        71.0350898212 Hartrees.
 NAtoms=    6 NActive=    6 NUniq=    6 SFac= 7.50D-01 NAtFMM=   80 NAOKFM=F Big=F
 Standard density basis: Auto (5D, 7F)
   201 Density fitting functions
 One-electron integrals computed using PRISM.
 NBasis=    51 RedAO= T  NBF=    51
 NBsUse=    51 1.00D-06 NBFU=    51
 Initial guess read from the read-write file.
 B after Tr=     0.000000    0.000000    0.000000
         Rot=    1.000000    0.000000    0.000000    0.000000 Ang=   0.00 deg.
 Harris functional with IExCor=  402 diagonalized for initial guess.
 ExpMin= 1.61D-01 ExpMax= 5.48D+03 ExpMxC= 8.25D+02 IAcc=1 IRadAn=         1 AccDes= 0.00D+00
 HarFok:  IExCor=  402 AccDes= 0.00D+00 IRadAn=         1 IDoV= 1
 ScaDFX=  1.000000  1.000000  1.000000  1.000000
 FoFCou: FMM=F IPFlag=           0 FMFlag=      100000 FMFlg1=           0
         NFxFlg=           0 DoJE=T BraDBF=F KetDBF=T FulRan=T
         Omega=  0.000000  0.000000  1.000000  0.000000  0.000000 ICntrl=     500 IOpCl=  0
         NMat0=    1 NMatS0=    1 NMatT0=    0 NMatD0=    1 NMtDS0=    0 NMtDT0=    0
         I1Cent=           4 NGrid=           0.
 Symmetry not used in FoFCou.
 Requested convergence on RMS density matrix=1.00D-08 within 128 cycles.
 Requested convergence on MAX density matrix=1.00D-06.
 Requested convergence on             energy=1.00D-06.
 No special actions if energy rises.
 Keep R1 ints in memory in canonical form, NReq=1823538.
 Integral accuracy reduced to 1.0D-05 until final iterations.
 Initial convergence to 1.0D-05 achieved.  Increase integral accuracy.
 SCF Done:  E(RB3LYP) =  -169.888840857     A.U. after   11 cycles
             Convg  =    0.6450D-08             -V/T =  2.0091
 Calling FoFJK, ICntrl=      2127 FMM=F ISym2X=0 I1Cent= 0 IOpClX= 0 NMat=1 NMatS=1 NMatT=0.
 -------------------------------------------------------------------
 Center     Atomic                   Forces (Hartrees/Bohr)
 Number     Number              X              Y              Z
 -------------------------------------------------------------------
      1        6          -0.000702740   -0.000580633   -0.000020173
      2        7           0.000762583    0.000072180    0.000004605
      3        8          -0.000373733    0.000251938    0.000007736
      4        1          -0.000002001   -0.000169036    0.000000090
      5        1           0.000325834    0.000093117    0.000000945
      6        1          -0.000009943    0.000332434    0.000006798
 -------------------------------------------------------------------
 Cartesian Forces:  Max     0.000762583 RMS     0.000322786

 GradGradGradGradGradGradGradGradGradGradGradGradGradGradGradGradGradGrad
 Berny optimization.
 Using GEDIIS/GDIIS optimizer.
 Internal  Forces:  Max     0.000995128 RMS     0.000352120
 Search for a local minimum.
 Step number   2 out of a maximum of   25
 All quantities printed in internal units (Hartrees-Bohrs-Radians)
 Mixed Optimization -- En-DIIS/RFO-DIIS
 Update second derivatives using D2CorX and points    1    2
 DE= -3.64D-04 DEPred=-3.78D-04 R= 9.64D-01
 SS=  1.41D+00  RLast= 3.90D-02 DXNew= 5.0454D-01 1.1704D-01
 Trust test= 9.64D-01 RLast= 3.90D-02 DXMaxT set to 3.00D-01
 The second derivative matrix:
                          R1        R2        R3        R4        R5
           R1           0.52934
           R2           0.01689   0.92224
           R3           0.00957   0.00251   0.31937
           R4           0.00752  -0.00079   0.00190   0.44627
           R5           0.00931   0.00229   0.00335   0.00180   0.45202
           A1           0.00570   0.01091   0.00495   0.00439   0.00484
           A2          -0.00472  -0.00702  -0.00348  -0.00294  -0.00340
           A3          -0.00311  -0.00932  -0.00373  -0.00356  -0.00366
           A4          -0.00105  -0.00178  -0.00084  -0.00073  -0.00082
           A5           0.00166   0.00295   0.00137   0.00120   0.00134
           A6          -0.00062  -0.00117  -0.00053  -0.00047  -0.00052
           D1           0.00007   0.00015   0.00007   0.00006   0.00006
           D2           0.00008   0.00016   0.00007   0.00007   0.00007
           D3          -0.00007  -0.00015  -0.00007  -0.00006  -0.00006
           D4          -0.00006  -0.00013  -0.00006  -0.00005  -0.00006
                          A1        A2        A3        A4        A5
           A1           0.25125
           A2          -0.00139   0.16130
           A3          -0.00007   0.00052   0.15927
           A4          -0.00027   0.00027   0.00007   0.16006
           A5           0.00041  -0.00042  -0.00007  -0.00008   0.16013
           A6          -0.00014   0.00015   0.00001   0.00003  -0.00004
           D1           0.00001  -0.00002   0.00000   0.00000   0.00000
           D2           0.00001  -0.00002   0.00000   0.00000   0.00000
           D3          -0.00001   0.00002   0.00000   0.00000   0.00000
           D4          -0.00001   0.00001   0.00000   0.00000   0.00000
                          A6        D1        D2        D3        D4
           A6           0.16001
           D1           0.00000   0.02116
           D2           0.00000   0.00000   0.02116
           D3           0.00000   0.00000   0.00000   0.02116
           D4           0.00000   0.00000   0.00000   0.00000   0.02116
 Use linear search instead of GDIIS.
     Eigenvalues ---    0.02116   0.02116   0.02116   0.15957   0.16000
     Eigenvalues ---    0.16030   0.22080   0.31927   0.44551   0.45132
     Eigenvalues ---    0.53114   0.923381000.000001000.000001000.00000
 RFO step:  Lambda=-3.56191032D-06 EMin= 2.11643485D-02
 Quartic linear search produced a step of -0.04116.
 Iteration  1 RMS(Cart)=  0.00139531 RMS(Int)=  0.00000109
 Iteration  2 RMS(Cart)=  0.00000097 RMS(Int)=  0.00000003
 Variable       Old X    -DE/DX   Delta X   Delta X   Delta X     New X
                                 (Linear)    (Quad)   (Total)
    R1        2.57219   0.00100   0.00053   0.00126   0.00178   2.57398
    R2        2.29793   0.00019   0.00074  -0.00064   0.00010   2.29803
    R3        2.09402   0.00033   0.00091  -0.00005   0.00086   2.09488
    R4        1.91019   0.00017   0.00060  -0.00033   0.00027   1.91047
    R5        1.90593   0.00032   0.00063  -0.00003   0.00059   1.90653
    A1        2.17943   0.00061   0.00011   0.00253   0.00264   2.18207
    A2        1.95482  -0.00028  -0.00033  -0.00079  -0.00113   1.95369
    A3        2.14894  -0.00033   0.00022  -0.00174  -0.00151   2.14743
    A4        2.08020  -0.00009  -0.00005  -0.00047  -0.00052   2.07968
    A5        2.12553   0.00015   0.00007   0.00078   0.00086   2.12639
    A6        2.07745  -0.00006  -0.00002  -0.00032  -0.00034   2.07712
    D1       -0.00041   0.00001   0.00001   0.00030   0.00031  -0.00010
    D2       -3.14126   0.00001   0.00000   0.00034   0.00034  -3.14091
    D3        3.14139  -0.00001   0.00000  -0.00031  -0.00031   3.14108
    D4        0.00055  -0.00001   0.00000  -0.00028  -0.00028   0.00027
         Item               Value     Threshold  Converged?
 Maximum Force            0.000995     0.000450     NO 
 RMS     Force            0.000352     0.000300     NO 
 Maximum Displacement     0.003396     0.001800     NO 
 RMS     Displacement     0.001395     0.001200     NO 
 Predicted change in Energy=-2.487752D-06
 GradGradGradGradGradGradGradGradGradGradGradGradGradGradGradGradGradGrad

                          Input orientation:                          
 ---------------------------------------------------------------------
 Center     Atomic      Atomic             Coordinates (Angstroms)
 Number     Number       Type             X           Y           Z
 ---------------------------------------------------------------------
      1          6           0       -0.156889    0.390045   -0.000131
      2          7           0        1.089296   -0.159784   -0.000104
      3          8           0       -1.197403   -0.239352    0.000060
      4          1           0        1.183547   -1.166356    0.000180
      5          1           0        1.922150    0.409615    0.000312
      6          1           0       -0.120731    1.498015    0.000069
 ---------------------------------------------------------------------
                    Distance matrix (angstroms):
                    1          2          3          4          5
     1  C    0.000000
     2  N    1.362089   0.000000
     3  O    1.216063   2.288082   0.000000
     4  H    2.054057   1.010975   2.555046   0.000000
     5  H    2.079130   1.008891   3.186340   1.740465   0.000000
     6  H    1.108561   2.052428   2.043934   2.966482   2.314730
                    6
     6  H    0.000000
 Symmetry turned off by external request.
 Stoichiometry    CH3NO
 Framework group  C1[X(CH3NO)]
 Deg. of freedom    12
 Full point group                 C1      NOp   1
 Rotational constants (GHZ):     73.4255246     11.2726115      9.7723216
 Standard basis: 6-31G(d) (6D, 7F)
 Integral buffers will be    131072 words long.
 Raffenetti 2 integral format.
 Two-electron integral symmetry is turned off.
    51 basis functions,    96 primitive gaussians,    51 cartesian basis functions
    12 alpha electrons       12 beta electrons
       nuclear repulsion energy        71.0012658454 Hartrees.
 NAtoms=    6 NActive=    6 NUniq=    6 SFac= 7.50D-01 NAtFMM=   80 NAOKFM=F Big=F
 Standard density basis: Auto (5D, 7F)
   201 Density fitting functions
 One-electron integrals computed using PRISM.
 NBasis=    51 RedAO= T  NBF=    51
 NBsUse=    51 1.00D-06 NBFU=    51
 Initial guess read from the read-write file.
 B after Tr=     0.000000    0.000000    0.000000
         Rot=    1.000000    0.000000    0.000000    0.000000 Ang=   0.00 deg.
 Requested convergence on RMS density matrix=1.00D-08 within 128 cycles.
 Requested convergence on MAX density matrix=1.00D-06.
 Requested convergence on             energy=1.00D-06.
 No special actions if energy rises.
 Keep R1 ints in memory in canonical form, NReq=1823538.
 SCF Done:  E(RB3LYP) =  -169.888843117     A.U. after    7 cycles
             Convg  =    0.6798D-08             -V/T =  2.0091
 Calling FoFJK, ICntrl=      2127 FMM=F ISym2X=0 I1Cent= 0 IOpClX= 0 NMat=1 NMatS=1 NMatT=0.
 -------------------------------------------------------------------
 Center     Atomic                   Forces (Hartrees/Bohr)
 Number     Number              X              Y              Z
 -------------------------------------------------------------------
      1        6          -0.000248534    0.000011973    0.000060527
      2        7          -0.000017604   -0.000057944   -0.000013129
      3        8           0.000198774    0.000013230   -0.000023563
      4        1           0.000041377   -0.000068147   -0.000000290
      5        1          -0.000018531    0.000017407   -0.000003347
      6        1           0.000044518    0.000083481   -0.000020198
 -------------------------------------------------------------------
 Cartesian Forces:  Max     0.000248534 RMS     0.000083676

 GradGradGradGradGradGradGradGradGradGradGradGradGradGradGradGradGradGrad
 Berny optimization.
 Using GEDIIS/GDIIS optimizer.
 Internal  Forces:  Max     0.000176552 RMS     0.000071867
 Search for a local minimum.
 Step number   3 out of a maximum of   25
 All quantities printed in internal units (Hartrees-Bohrs-Radians)
 Mixed Optimization -- En-DIIS/RFO-DIIS
 Swaping is turned off.
 Update second derivatives using D2CorX and points    1    2    3
 DE= -2.26D-06 DEPred=-2.49D-06 R= 9.08D-01
 SS=  1.41D+00  RLast= 4.05D-03 DXNew= 5.0454D-01 1.2140D-02
 Trust test= 9.08D-01 RLast= 4.05D-03 DXMaxT set to 3.00D-01
 The second derivative matrix:
                          R1        R2        R3        R4        R5
           R1           0.49805
           R2           0.04823   0.93346
           R3          -0.00983   0.00877   0.31154
           R4          -0.00635   0.00038  -0.00263   0.44405
           R5           0.00502   0.01240  -0.00107  -0.00180   0.45224
           A1          -0.00491   0.03672  -0.00645  -0.00498   0.00543
           A2          -0.01650  -0.01823  -0.00357  -0.00118  -0.00812
           A3          -0.02673  -0.02654  -0.00551  -0.00159  -0.01241
           A4          -0.00984  -0.00777  -0.00164  -0.00013  -0.00402
           A5           0.00795   0.01062   0.00088  -0.00026   0.00409
           A6           0.00189  -0.00285   0.00076   0.00039  -0.00007
           D1           0.00353   0.00136   0.00074   0.00017   0.00117
           D2           0.00404   0.00154   0.00085   0.00020   0.00134
           D3          -0.00361  -0.00139  -0.00076  -0.00018  -0.00120
           D4          -0.00310  -0.00121  -0.00065  -0.00015  -0.00103
                          A1        A2        A3        A4        A5
           A1           0.25319
           A2          -0.01370   0.16938
           A3          -0.02288   0.01389   0.18107
           A4          -0.00860   0.00502   0.00776   0.16277
           A5           0.00759  -0.00567  -0.00887  -0.00321   0.16349
           A6           0.00101   0.00065   0.00111   0.00045  -0.00028
           D1           0.00288  -0.00126  -0.00191  -0.00067   0.00086
           D2           0.00329  -0.00143  -0.00218  -0.00076   0.00098
           D3          -0.00294   0.00129   0.00195   0.00068  -0.00087
           D4          -0.00253   0.00111   0.00169   0.00059  -0.00075
                          A6        D1        D2        D3        D4
           A6           0.15983
           D1          -0.00019   0.02130
           D2          -0.00022   0.00015   0.02134
           D3           0.00019  -0.00014  -0.00016   0.02131
           D4           0.00016  -0.00012  -0.00014   0.00012   0.02127
     Eigenvalues ---    0.02116   0.02116   0.02135   0.15947   0.15998
     Eigenvalues ---    0.16340   0.25520   0.31084   0.44318   0.45243
     Eigenvalues ---    0.49564   0.943201000.000001000.000001000.00000
 En-DIIS/RFO-DIIS IScMMF=        0 using points:     3    2
 RFO step:  Lambda=-1.26626037D-07.
 DIIS coeffs:      0.92307      0.07693
 Iteration  1 RMS(Cart)=  0.00037649 RMS(Int)=  0.00000032
 Iteration  2 RMS(Cart)=  0.00000024 RMS(Int)=  0.00000021
 Variable       Old X    -DE/DX   Delta X   Delta X   Delta X     New X
                                  (DIIS)     (GDIIS)  (Total)
    R1        2.57398   0.00005  -0.00014   0.00031   0.00018   2.57415
    R2        2.29803  -0.00018  -0.00001  -0.00016  -0.00017   2.29786
    R3        2.09488   0.00008  -0.00007   0.00036   0.00029   2.09517
    R4        1.91047   0.00007  -0.00002   0.00018   0.00016   1.91063
    R5        1.90653  -0.00001  -0.00005   0.00007   0.00002   1.90655
    A1        2.18207  -0.00011  -0.00020  -0.00014  -0.00035   2.18172
    A2        1.95369   0.00001   0.00009  -0.00015  -0.00007   1.95363
    A3        2.14743   0.00010   0.00012   0.00030   0.00041   2.14784
    A4        2.07968   0.00006   0.00004   0.00029   0.00033   2.08001
    A5        2.12639  -0.00006  -0.00007  -0.00021  -0.00028   2.12611
    A6        2.07712  -0.00001   0.00003  -0.00008  -0.00005   2.07706
    D1       -0.00010  -0.00002  -0.00002  -0.00086  -0.00088  -0.00099
    D2       -3.14091  -0.00002  -0.00003  -0.00098  -0.00101   3.14126
    D3        3.14108   0.00002   0.00002   0.00088   0.00090  -3.14120
    D4        0.00027   0.00002   0.00002   0.00075   0.00078   0.00104
         Item               Value     Threshold  Converged?
 Maximum Force            0.000177     0.000450     YES
 RMS     Force            0.000072     0.000300     YES
 Maximum Displacement     0.000985     0.001800     YES
 RMS     Displacement     0.000377     0.001200     YES
 Predicted change in Energy=-1.326078D-07
 Optimization completed.
    -- Stationary point found.
                           ----------------------------
                           !   Optimized Parameters   !
                           ! (Angstroms and Degrees)  !
 --------------------------                            --------------------------
 ! Name  Definition              Value          Derivative Info.                !
 --------------------------------------------------------------------------------
 ! R1    R(1,2)                  1.3621         -DE/DX =    0.0                 !
 ! R2    R(1,3)                  1.2161         -DE/DX =   -0.0002              !
 ! R3    R(1,6)                  1.1086         -DE/DX =    0.0001              !
 ! R4    R(2,4)                  1.011          -DE/DX =    0.0001              !
 ! R5    R(2,5)                  1.0089         -DE/DX =    0.0                 !
 ! A1    A(2,1,3)              125.0232         -DE/DX =   -0.0001              !
 ! A2    A(2,1,6)              111.9384         -DE/DX =    0.0                 !
 ! A3    A(3,1,6)              123.0384         -DE/DX =    0.0001              !
 ! A4    A(1,2,4)              119.1569         -DE/DX =    0.0001              !
 ! A5    A(1,2,5)              121.8332         -DE/DX =   -0.0001              !
 ! A6    A(4,2,5)              119.0099         -DE/DX =    0.0                 !
 ! D1    D(3,1,2,4)             -0.006          -DE/DX =    0.0                 !
 ! D2    D(3,1,2,5)            180.0389         -DE/DX =    0.0                 !
 ! D3    D(6,1,2,4)           -180.0294         -DE/DX =    0.0                 !
 ! D4    D(6,1,2,5)              0.0154         -DE/DX =    0.0                 !
 --------------------------------------------------------------------------------
 GradGradGradGradGradGradGradGradGradGradGradGradGradGradGradGradGradGrad

                          Input orientation:                          
 ---------------------------------------------------------------------
 Center     Atomic      Atomic             Coordinates (Angstroms)
 Number     Number       Type             X           Y           Z
 ---------------------------------------------------------------------
      1          6           0       -0.156889    0.390045   -0.000131
      2          7           0        1.089296   -0.159784   -0.000104
      3          8           0       -1.197403   -0.239352    0.000060
      4          1           0        1.183547   -1.166356    0.000180
      5          1           0        1.922150    0.409615    0.000312
      6          1           0       -0.120731    1.498015    0.000069
 ---------------------------------------------------------------------
                    Distance matrix (angstroms):
                    1          2          3          4          5
     1  C    0.000000
     2  N    1.362089   0.000000
     3  O    1.216063   2.288082   0.000000
     4  H    2.054057   1.010975   2.555046   0.000000
     5  H    2.079130   1.008891   3.186340   1.740465   0.000000
     6  H    1.108561   2.052428   2.043934   2.966482   2.314730
                    6
     6  H    0.000000
 Symmetry turned off by external request.
 Stoichiometry    CH3NO
 Framework group  C1[X(CH3NO)]
 Deg. of freedom    12
 Full point group                 C1      NOp   1
 Rotational constants (GHZ):     73.4255246     11.2726115      9.7723216

 **********************************************************************

            Population analysis using the SCF density.

 **********************************************************************

 Alpha  occ. eigenvalues --  -19.11686 -14.36582 -10.28951  -1.03142  -0.90947
 Alpha  occ. eigenvalues --   -0.62737  -0.55760  -0.47945  -0.40986  -0.40080
 Alpha  occ. eigenvalues --   -0.27246  -0.25472
 Alpha virt. eigenvalues --    0.02973   0.07205   0.10850   0.16341   0.26882
 Alpha virt. eigenvalues --    0.34266   0.53538   0.55334   0.64882   0.67851
 Alpha virt. eigenvalues --    0.69581   0.71105   0.83986   0.86054   0.87032
 Alpha virt. eigenvalues --    0.88564   1.00659   1.07505   1.21291   1.29112
 Alpha virt. eigenvalues --    1.37539   1.47453   1.51640   1.68466   1.77720
 Alpha virt. eigenvalues --    1.85089   1.86893   2.03381   2.10008   2.27216
 Alpha virt. eigenvalues --    2.29094   2.48749   2.63082   2.66355   2.90920
 Alpha virt. eigenvalues --    3.00655   3.73579   3.86139   4.18166
          Condensed to atoms (all electrons):
              1          2          3          4          5          6
     1  C    4.423343   0.254897   0.605108  -0.003793  -0.005353   0.362970
     2  N    0.254897   7.084939  -0.086806   0.282461   0.288547  -0.125873
     3  O    0.605108  -0.086806   7.975136   0.007326   0.003275  -0.056308
     4  H   -0.003793   0.282461   0.007326   0.381012  -0.018652   0.007798
     5  H   -0.005353   0.288547   0.003275  -0.018652   0.389537   0.006065
     6  H    0.362970  -0.125873  -0.056308   0.007798   0.006065   0.702709
 Mulliken atomic charges:
              1
     1  C    0.362830
     2  N   -0.698166
     3  O   -0.447731
     4  H    0.343848
     5  H    0.336580
     6  H    0.102638
 Sum of Mulliken atomic charges =   0.00000
 Mulliken charges with hydrogens summed into heavy atoms:
              1
     1  C    0.465468
     2  N   -0.017737
     3  O   -0.447731
 Sum of Mulliken charges with hydrogens summed into heavy atoms =   0.00000
 Electronic spatial extent (au):  <R**2>=            146.0722
 Charge=              0.0000 electrons
 Dipole moment (field-independent basis, Debye):
    X=              3.7646    Y=              0.7234    Z=              0.0009  Tot=              3.8335
 Quadrupole moment (field-independent basis, Debye-Ang):
   XX=            -17.2236   YY=            -15.0388   ZZ=            -18.4041
   XY=             -1.0619   XZ=              0.0022   YZ=             -0.0002
 Traceless Quadrupole moment (field-independent basis, Debye-Ang):
   XX=             -0.3348   YY=              1.8500   ZZ=             -1.5152
   XY=             -1.0619   XZ=              0.0022   YZ=             -0.0002
 Octapole moment (field-independent basis, Debye-Ang**2):
  XXX=             11.6785  YYY=             -2.8581  ZZZ=              0.0023  XYY=              2.5667
  XXY=              0.7329  XXZ=              0.0041  XZZ=             -1.6082  YZZ=             -0.3620
  YYZ=              0.0014  XYZ=             -0.0002
 Hexadecapole moment (field-independent basis, Debye-Ang**3):
 XXXX=           -104.9765 YYYY=            -32.9719 ZZZZ=            -15.5469 XXXY=              2.7387
 XXXZ=              0.0080 YYYX=             -2.8042 YYYZ=              0.0003 ZZZX=              0.0024
 ZZZY=              0.0004 XXYY=            -22.3172 XXZZ=            -23.5502 YYZZ=             -8.9785
 XXYZ=              0.0002 YYXZ=              0.0014 ZZXY=              0.3679
 N-N= 7.100126584540D+01 E-N=-5.399021125267D+02  KE= 1.683586441458D+02
 1\1\GINC-CLODOMIRA\FOpt\RB3LYP\6-31G(d)\C1H3N1O1\DIEGOA\08-Oct-2019\0\
 \# b3lyp/6-31G* opt Freq=(savenormalmodes,raman) nosymm\\Title\\0,1\C,
 -0.1568886185,0.3900445984,-0.0001313026\N,1.089295646,-0.1597839003,-
 0.0001035739\O,-1.1974028102,-0.2393517038,0.0000597254\H,1.1835470203
 ,-1.1663559863,0.0001801747\H,1.9221495974,0.4096145952,0.0003120594\H
 ,-0.1207308351,1.4980153967,0.0000689171\\Version=EM64L-G09RevA.01\HF=
 -169.8888431\RMSD=6.798e-09\RMSF=8.368e-05\Dipole=1.4811214,0.2846271,
 0.0003505\Quadrupole=-0.2489106,1.3754427,-1.126532,-0.7894688,0.00165
 08,-0.0001442\PG=C01 [X(C1H3N1O1)]\\@


    UPON JULIA'S CLOTHES

 WHENAS IN SILKS MY JULIA GOES,
 THEN, THEN, METHINKS, HOW SWEETLY FLOWS
 THAT LIQUEFACTION OF HER CLOTHES.

 NEXT, WHEN I CAST MINE EYES, AND SEE
 THAT BRAVE VIBRATION, EACH WAY FREE,
 O, HOW THAT GLITTERING TAKETH ME!
     -- ROBERT HERRICK, 1648
 Job cpu time:  0 days  0 hours  0 minutes 15.6 seconds.
 File lengths (MBytes):  RWF=      5 Int=      0 D2E=      0 Chk=      1 Scr=      1
 Normal termination of Gaussian 09 at Tue Oct  8 22:31:20 2019.
 Link1:  Proceeding to internal job step number  2.
 --------------------------------------------------------------------
 #N Geom=AllCheck Guess=TCheck SCRF=Check GenChk RB3LYP/6-31G(d) Freq
 --------------------------------------------------------------------
 1/10=4,29=7,30=1,38=1,40=1/1,3;
 2/12=2,15=1,40=1/2;
 3/5=1,6=6,7=1,11=2,14=-4,16=1,25=1,30=1,70=2,71=2,74=-5,82=47,116=1/1,2,3;
 4/5=101/1;
 5/5=2,98=1/2;
 8/6=4,10=90,11=11/1;
 10/13=10,15=4,31=1/2;
 11/6=3,8=1,9=11,15=111,16=1,31=1/1,2,10;
 10/6=1,31=1/2;
 6/7=2,8=2,9=2,10=2,18=1,28=1/1;
 7/8=1,10=1,25=1,30=1,92=1/1,2,3,16;
 1/10=4,30=1/3;
 99//99;
 -----
 Title
 -----
 Redundant internal coordinates taken from checkpoint file:
 freq.chk
 Charge =  0 Multiplicity = 1
 C,0,-0.1568886185,0.3900445984,-0.0001313026
 N,0,1.089295646,-0.1597839003,-0.0001035739
 O,0,-1.1974028102,-0.2393517038,0.0000597254
 H,0,1.1835470203,-1.1663559863,0.0001801747
 H,0,1.9221495974,0.4096145952,0.0003120594
 H,0,-0.1207308351,1.4980153967,0.0000689171
 Recover connectivity data from disk.

 GradGradGradGradGradGradGradGradGradGradGradGradGradGradGradGradGradGrad
 Berny optimization.
 Initialization pass.
                           ----------------------------
                           !    Initial Parameters    !
                           ! (Angstroms and Degrees)  !
 --------------------------                            --------------------------
 ! Name  Definition              Value          Derivative Info.                !
 --------------------------------------------------------------------------------
 ! R1    R(1,2)                  1.3621         calculate D2E/DX2 analytically  !
 ! R2    R(1,3)                  1.2161         calculate D2E/DX2 analytically  !
 ! R3    R(1,6)                  1.1086         calculate D2E/DX2 analytically  !
 ! R4    R(2,4)                  1.011          calculate D2E/DX2 analytically  !
 ! R5    R(2,5)                  1.0089         calculate D2E/DX2 analytically  !
 ! A1    A(2,1,3)              125.0232         calculate D2E/DX2 analytically  !
 ! A2    A(2,1,6)              111.9384         calculate D2E/DX2 analytically  !
 ! A3    A(3,1,6)              123.0384         calculate D2E/DX2 analytically  !
 ! A4    A(1,2,4)              119.1569         calculate D2E/DX2 analytically  !
 ! A5    A(1,2,5)              121.8332         calculate D2E/DX2 analytically  !
 ! A6    A(4,2,5)              119.0099         calculate D2E/DX2 analytically  !
 ! D1    D(3,1,2,4)             -0.006          calculate D2E/DX2 analytically  !
 ! D2    D(3,1,2,5)           -179.9611         calculate D2E/DX2 analytically  !
 ! D3    D(6,1,2,4)            179.9706         calculate D2E/DX2 analytically  !
 ! D4    D(6,1,2,5)              0.0154         calculate D2E/DX2 analytically  !
 --------------------------------------------------------------------------------
 Trust Radius=3.00D-01 FncErr=1.00D-07 GrdErr=1.00D-07
 Number of steps in this run=   2 maximum allowed number of steps=   2.
 GradGradGradGradGradGradGradGradGradGradGradGradGradGradGradGradGradGrad

                          Input orientation:                          
 ---------------------------------------------------------------------
 Center     Atomic      Atomic             Coordinates (Angstroms)
 Number     Number       Type             X           Y           Z
 ---------------------------------------------------------------------
      1          6           0       -0.156889    0.390045   -0.000131
      2          7           0        1.089296   -0.159784   -0.000104
      3          8           0       -1.197403   -0.239352    0.000060
      4          1           0        1.183547   -1.166356    0.000180
      5          1           0        1.922150    0.409615    0.000312
      6          1           0       -0.120731    1.498015    0.000069
 ---------------------------------------------------------------------
                    Distance matrix (angstroms):
                    1          2          3          4          5
     1  C    0.000000
     2  N    1.362089   0.000000
     3  O    1.216063   2.288082   0.000000
     4  H    2.054057   1.010975   2.555046   0.000000
     5  H    2.079130   1.008891   3.186340   1.740465   0.000000
     6  H    1.108561   2.052428   2.043934   2.966482   2.314730
                    6
     6  H    0.000000
 Symmetry turned off by external request.
 Stoichiometry    CH3NO
 Framework group  C1[X(CH3NO)]
 Deg. of freedom    12
 Full point group                 C1      NOp   1
 Rotational constants (GHZ):     73.4255246     11.2726115      9.7723216
 Standard basis: 6-31G(d) (6D, 7F)
 Integral buffers will be    131072 words long.
 Raffenetti 2 integral format.
 Two-electron integral symmetry is turned off.
    51 basis functions,    96 primitive gaussians,    51 cartesian basis functions
    12 alpha electrons       12 beta electrons
       nuclear repulsion energy        71.0012658454 Hartrees.
 NAtoms=    6 NActive=    6 NUniq=    6 SFac= 7.50D-01 NAtFMM=   80 NAOKFM=F Big=F
 Standard density basis: Auto (5D, 7F)
   201 Density fitting functions
 One-electron integrals computed using PRISM.
 NBasis=    51 RedAO= T  NBF=    51
 NBsUse=    51 1.00D-06 NBFU=    51
 Initial guess read from the checkpoint file:  freq.chk
 B after Tr=     0.000000    0.000000    0.000000
         Rot=    1.000000    0.000000    0.000000    0.000000 Ang=   0.00 deg.
 Requested convergence on RMS density matrix=1.00D-08 within 128 cycles.
 Requested convergence on MAX density matrix=1.00D-06.
 Requested convergence on             energy=1.00D-06.
 No special actions if energy rises.
 Keep R1 ints in memory in canonical form, NReq=1823538.
 SCF Done:  E(RB3LYP) =  -169.888843117     A.U. after    1 cycles
             Convg  =    0.3119D-08             -V/T =  2.0091
 Range of M.O.s used for correlation:     1    51
 NBasis=    51 NAE=    12 NBE=    12 NFC=     0 NFV=     0
 NROrb=     51 NOA=    12 NOB=    12 NVA=    39 NVB=    39
          Differentiating once with respect to electric field.
                with respect to dipole field.
          Electric field/nuclear overlap derivatives assumed to be zero.
          Keep R1 ints in memory in canonical form, NReq=1701588.
          There are     3 degrees of freedom in the 1st order CPHF.  IDoFFX=0.
      3 vectors produced by pass  0 Test12= 1.56D-14 3.33D-08 XBig12= 2.91D+01 4.32D+00.
 AX will form     3 AO Fock derivatives at one time.
      3 vectors produced by pass  1 Test12= 1.56D-14 3.33D-08 XBig12= 1.19D+01 1.33D+00.
      3 vectors produced by pass  2 Test12= 1.56D-14 3.33D-08 XBig12= 9.15D-01 2.60D-01.
      3 vectors produced by pass  3 Test12= 1.56D-14 3.33D-08 XBig12= 1.82D-01 1.34D-01.
      3 vectors produced by pass  4 Test12= 1.56D-14 3.33D-08 XBig12= 5.21D-03 2.40D-02.
      3 vectors produced by pass  5 Test12= 1.56D-14 3.33D-08 XBig12= 1.10D-04 3.06D-03.
      3 vectors produced by pass  6 Test12= 1.56D-14 3.33D-08 XBig12= 1.97D-06 4.72D-04.
      3 vectors produced by pass  7 Test12= 1.56D-14 3.33D-08 XBig12= 5.50D-08 5.73D-05.
      2 vectors produced by pass  8 Test12= 1.56D-14 3.33D-08 XBig12= 5.66D-10 6.29D-06.
      1 vectors produced by pass  9 Test12= 1.56D-14 3.33D-08 XBig12= 3.81D-12 5.20D-07.
      1 vectors produced by pass 10 Test12= 1.56D-14 3.33D-08 XBig12= 1.57D-14 2.92D-08.
 Inverted reduced A of dimension    28 with in-core refinement.
 End of Minotr Frequency-dependent properties file   721 does not exist.
 End of Minotr Frequency-dependent properties file   722 does not exist.
 Symmetrizing basis deriv contribution to polar:
 IMax=3 JMax=2 DiffMx= 0.00D+00
 G2DrvN: will do     7 centers at a time, making    1 passes doing MaxLOS=2.
 Calling FoFCou, ICntrl=  3107 FMM=F I1Cent=   0 AccDes= 0.00D+00.
 FoFDir/FoFCou used for L=0 through L=2.
 End of G2Drv Frequency-dependent properties file   721 does not exist.
 End of G2Drv Frequency-dependent properties file   722 does not exist.
          IDoAtm=111111
          Differentiating once with respect to electric field.
                with respect to dipole field.
          Differentiating once with respect to nuclear coordinates.
          Keep R1 ints in memory in canonical form, NReq=1701714.
          There are    21 degrees of freedom in the 1st order CPHF.  IDoFFX=5.
 Will reuse    3 saved solutions.
     15 vectors produced by pass  0 Test12= 2.23D-15 4.76D-09 XBig12= 1.82D-01 1.85D-01.
 AX will form    15 AO Fock derivatives at one time.
     15 vectors produced by pass  1 Test12= 2.23D-15 4.76D-09 XBig12= 1.54D-01 1.81D-01.
     15 vectors produced by pass  2 Test12= 2.23D-15 4.76D-09 XBig12= 1.86D-03 1.04D-02.
     15 vectors produced by pass  3 Test12= 2.23D-15 4.76D-09 XBig12= 9.36D-06 9.32D-04.
     15 vectors produced by pass  4 Test12= 2.23D-15 4.76D-09 XBig12= 1.82D-08 4.77D-05.
     11 vectors produced by pass  5 Test12= 2.23D-15 4.76D-09 XBig12= 1.01D-11 6.06D-07.
      1 vectors produced by pass  6 Test12= 2.23D-15 4.76D-09 XBig12= 5.47D-15 1.68D-08.
 Inverted reduced A of dimension    87 with in-core refinement.
 Isotropic polarizability for W=    0.000000       19.90 Bohr**3.
 End of Minotr Frequency-dependent properties file   721 does not exist.
 End of Minotr Frequency-dependent properties file   722 does not exist.

 **********************************************************************

            Population analysis using the SCF density.

 **********************************************************************

 Alpha  occ. eigenvalues --  -19.11686 -14.36582 -10.28951  -1.03142  -0.90947
 Alpha  occ. eigenvalues --   -0.62737  -0.55760  -0.47945  -0.40986  -0.40080
 Alpha  occ. eigenvalues --   -0.27246  -0.25472
 Alpha virt. eigenvalues --    0.02973   0.07205   0.10850   0.16341   0.26882
 Alpha virt. eigenvalues --    0.34266   0.53538   0.55334   0.64882   0.67851
 Alpha virt. eigenvalues --    0.69581   0.71105   0.83986   0.86054   0.87032
 Alpha virt. eigenvalues --    0.88564   1.00659   1.07505   1.21291   1.29112
 Alpha virt. eigenvalues --    1.37539   1.47453   1.51640   1.68466   1.77720
 Alpha virt. eigenvalues --    1.85089   1.86893   2.03381   2.10008   2.27216
 Alpha virt. eigenvalues --    2.29094   2.48749   2.63082   2.66355   2.90920
 Alpha virt. eigenvalues --    3.00655   3.73579   3.86139   4.18166
          Condensed to atoms (all electrons):
              1          2          3          4          5          6
     1  C    4.423342   0.254897   0.605108  -0.003793  -0.005353   0.362970
     2  N    0.254897   7.084940  -0.086806   0.282461   0.288547  -0.125873
     3  O    0.605108  -0.086806   7.975136   0.007326   0.003275  -0.056308
     4  H   -0.003793   0.282461   0.007326   0.381012  -0.018652   0.007798
     5  H   -0.005353   0.288547   0.003275  -0.018652   0.389537   0.006065
     6  H    0.362970  -0.125873  -0.056308   0.007798   0.006065   0.702709
 Mulliken atomic charges:
              1
     1  C    0.362830
     2  N   -0.698166
     3  O   -0.447731
     4  H    0.343848
     5  H    0.336580
     6  H    0.102638
 Sum of Mulliken atomic charges =   0.00000
 Mulliken charges with hydrogens summed into heavy atoms:
              1
     1  C    0.465468
     2  N   -0.017737
     3  O   -0.447731
 Sum of Mulliken charges with hydrogens summed into heavy atoms =   0.00000
 APT atomic charges:
              1
     1  C    1.040132
     2  N   -0.682100
     3  O   -0.729204
     4  H    0.219468
     5  H    0.218946
     6  H   -0.067243
 Sum of APT charges=   0.00000
 APT Atomic charges with hydrogens summed into heavy atoms:
              1
     1  C    0.972889
     2  N   -0.243686
     3  O   -0.729204
     4  H    0.000000
     5  H    0.000000
     6  H    0.000000
 Sum of APT charges=   0.00000
 Electronic spatial extent (au):  <R**2>=            146.0722
 Charge=              0.0000 electrons
 Dipole moment (field-independent basis, Debye):
    X=              3.7646    Y=              0.7235    Z=              0.0009  Tot=              3.8335
 Quadrupole moment (field-independent basis, Debye-Ang):
   XX=            -17.2236   YY=            -15.0388   ZZ=            -18.4040
   XY=             -1.0619   XZ=              0.0022   YZ=             -0.0002
 Traceless Quadrupole moment (field-independent basis, Debye-Ang):
   XX=             -0.3348   YY=              1.8500   ZZ=             -1.5152
   XY=             -1.0619   XZ=              0.0022   YZ=             -0.0002
 Octapole moment (field-independent basis, Debye-Ang**2):
  XXX=             11.6785  YYY=             -2.8581  ZZZ=              0.0023  XYY=              2.5667
  XXY=              0.7329  XXZ=              0.0041  XZZ=             -1.6082  YZZ=             -0.3620
  YYZ=              0.0014  XYZ=             -0.0002
 Hexadecapole moment (field-independent basis, Debye-Ang**3):
 XXXX=           -104.9765 YYYY=            -32.9719 ZZZZ=            -15.5469 XXXY=              2.7387
 XXXZ=              0.0080 YYYX=             -2.8042 YYYZ=              0.0003 ZZZX=              0.0024
 ZZZY=              0.0004 XXYY=            -22.3172 XXZZ=            -23.5502 YYZZ=             -8.9785
 XXYZ=              0.0002 YYXZ=              0.0014 ZZXY=              0.3679
 N-N= 7.100126584540D+01 E-N=-5.399021141473D+02  KE= 1.683586450000D+02
  Exact polarizability:  28.445   0.751  21.577   0.000   0.000   9.665
 Approx polarizability:  46.497   4.622  28.839  -0.003  -0.001  12.921
 Calling FoFJK, ICntrl=    100127 FMM=F ISym2X=0 I1Cent= 0 IOpClX= 0 NMat=1 NMatS=1 NMatT=0.
 Full mass-weighted force constant matrix:
 Low frequencies ---   -3.8163   -0.0012   -0.0008   -0.0008    3.5599   11.5231
 Low frequencies ---   74.9910  564.3099  651.8127
 Diagonal vibrational polarizability:
        5.0614860       1.5885652    1278.5909918
 Diagonal vibrational hyperpolarizability:
       16.3425123      -6.8478942       3.7291187
 Harmonic frequencies (cm**-1), IR intensities (KM/Mole), Raman scattering
 activities (A**4/AMU), depolarization ratios for plane and unpolarized
 incident light, reduced masses (AMU), force constants (mDyne/A),
 and normal coordinates:
                     1                      2                      3
                     A                      A                      A
 Frequencies --    74.7943               564.3098               651.8127
 Red. masses --     1.2279                 2.4423                 1.2081
 Frc consts  --     0.0040                 0.4582                 0.3024
 IR Inten    --   265.5277                11.4537                19.7945
 Raman Activ --     0.6795                 1.4254                 1.6501
 Depolar (P) --     0.7500                 0.6870                 0.7500
 Depolar (U) --     0.8571                 0.8145                 0.8571
  Atom  AN      X      Y      Z        X      Y      Z        X      Y      Z
     1   6     0.00   0.00  -0.02    -0.01   0.20   0.00     0.00   0.00  -0.10
     2   7     0.00   0.00   0.13    -0.15  -0.02   0.00     0.00   0.00   0.05
     3   8     0.00   0.00  -0.01     0.18  -0.11   0.00     0.00   0.00   0.06
     4   1     0.00   0.00  -0.54    -0.76  -0.08   0.00     0.00   0.00  -0.76
     5   1     0.00   0.00  -0.83     0.16  -0.48   0.00     0.00   0.00   0.60
     6   1     0.00   0.00   0.02    -0.14   0.20   0.00     0.00   0.00  -0.21
                     4                      5                      6
                     A                      A                      A
 Frequencies --  1045.2212              1060.5587              1281.6991
 Red. masses --     1.5393                 1.7587                 2.8121
 Frc consts  --     0.9908                 1.1655                 2.7218
 IR Inten    --     0.0636                 2.8863                96.4700
 Raman Activ --     3.1741                 6.0653                 3.8997
 Depolar (P) --     0.7500                 0.5064                 0.3328
 Depolar (U) --     0.8571                 0.6723                 0.4994
  Atom  AN      X      Y      Z        X      Y      Z        X      Y      Z
     1   6     0.00   0.00   0.21    -0.05   0.00   0.00    -0.18   0.26   0.00
     2   7     0.00   0.00  -0.03     0.19   0.05   0.00     0.12  -0.19   0.00
     3   8     0.00   0.00  -0.05    -0.12  -0.02   0.00     0.01  -0.04   0.00
     4   1     0.00   0.00  -0.17    -0.43  -0.01   0.00     0.81  -0.12   0.00
     5   1     0.00   0.00  -0.02     0.60  -0.54   0.00    -0.02   0.05   0.00
     6   1     0.00   0.00  -0.96    -0.32  -0.01   0.00    -0.32   0.27   0.00
                     7                      8                      9
                     A                      A                      A
 Frequencies --  1437.1337              1639.1504              1838.8644
 Red. masses --     1.2105                 1.2392                 7.2636
 Frc consts  --     1.4730                 1.9616                14.4710
 IR Inten    --     5.0013                65.2347               356.5048
 Raman Activ --     8.4911                 5.6873                 6.8743
 Depolar (P) --     0.4686                 0.6913                 0.4036
 Depolar (U) --     0.6381                 0.8175                 0.5751
  Atom  AN      X      Y      Z        X      Y      Z        X      Y      Z
     1   6     0.03  -0.07   0.00     0.01   0.05   0.00     0.56   0.24   0.00
     2   7    -0.01  -0.03   0.00     0.10  -0.05   0.00    -0.11  -0.01   0.00
     3   8     0.06   0.07   0.00    -0.03  -0.02   0.00    -0.31  -0.18   0.00
     4   1    -0.04  -0.03   0.00    -0.65  -0.13   0.00     0.40   0.05   0.00
     5   1    -0.11   0.11   0.00    -0.37   0.64   0.00    -0.08  -0.06   0.00
     6   1    -0.98  -0.06   0.00     0.05   0.06   0.00    -0.49   0.25   0.00
                    10                     11                     12
                     A                      A                      A
 Frequencies --  2965.2166              3586.5430              3717.9940
 Red. masses --     1.0861                 1.0453                 1.1053
 Frc consts  --     5.6264                 7.9218                 9.0021
 IR Inten    --   113.8470                29.6125                33.6252
 Raman Activ --   113.0796               113.1225                59.0728
 Depolar (P) --     0.3077                 0.1294                 0.7258
 Depolar (U) --     0.4707                 0.2292                 0.8411
  Atom  AN      X      Y      Z        X      Y      Z        X      Y      Z
     1   6     0.00   0.08   0.00     0.00   0.00   0.00     0.00   0.00   0.00
     2   7     0.00   0.00   0.00     0.05  -0.03   0.00     0.04   0.08   0.00
     3   8     0.00   0.00   0.00     0.00   0.00   0.00     0.00   0.00   0.00
     4   1     0.00   0.01   0.00    -0.07   0.75   0.00     0.07  -0.64   0.00
     5   1     0.00   0.02   0.00    -0.53  -0.37   0.00    -0.62  -0.43   0.00
     6   1     0.00  -1.00   0.00     0.00   0.00   0.00     0.00  -0.01   0.00

 -------------------
 - Thermochemistry -
 -------------------
 Temperature   298.150 Kelvin.  Pressure   1.00000 Atm.
 Atom     1 has atomic number  6 and mass  12.00000
 Atom     2 has atomic number  7 and mass  14.00307
 Atom     3 has atomic number  8 and mass  15.99491
 Atom     4 has atomic number  1 and mass   1.00783
 Atom     5 has atomic number  1 and mass   1.00783
 Atom     6 has atomic number  1 and mass   1.00783
 Molecular mass:    45.02146 amu.
 Principal axes and moments of inertia in atomic units:
                           1         2         3
     Eigenvalues --    24.57921 160.09965 184.67886
           X            0.99988  -0.01563   0.00004
           Y            0.01563   0.99988   0.00009
           Z           -0.00004  -0.00008   1.00000
 This molecule is an asymmetric top.
 Rotational symmetry number  1.
 Rotational temperatures (Kelvin)      3.52387     0.54100     0.46900
 Rotational constants (GHZ):          73.42552    11.27261     9.77232
 Zero-point vibrational energy     118808.9 (Joules/Mol)
                                   28.39601 (Kcal/Mol)
 Warning -- explicit consideration of   2 degrees of freedom as
           vibrations may cause significant error
 Vibrational temperatures:    107.61   811.91   937.81  1503.84  1525.91
          (Kelvin)           1844.08  2067.71  2358.37  2645.71  4266.28
                             5160.23  5349.36
 
 Zero-point correction=                           0.045252 (Hartree/Particle)
 Thermal correction to Energy=                    0.049265
 Thermal correction to Enthalpy=                  0.050209
 Thermal correction to Gibbs Free Energy=         0.019960
 Sum of electronic and zero-point Energies=           -169.843591
 Sum of electronic and thermal Energies=              -169.839578
 Sum of electronic and thermal Enthalpies=            -169.838634
 Sum of electronic and thermal Free Energies=         -169.868883
 
                     E (Thermal)             CV                S
                      KCal/Mol        Cal/Mol-Kelvin    Cal/Mol-Kelvin
 Total                   30.914             10.924             63.664
 Electronic               0.000              0.000              0.000
 Translational            0.889              2.981             37.339
 Rotational               0.889              2.981             21.213
 Vibrational             29.137              4.963              5.112
 Vibration     1          0.599              1.966              4.023
 Vibration     2          0.920              1.108              0.515
                       Q            Log10(Q)             Ln(Q)
 Total Bot       0.658996D-09         -9.181117        -21.140304
 Total V=0       0.429811D+12         11.633278         26.786611
 Vib (Bot)       0.575127D-20        -20.240236        -46.604866
 Vib (Bot)    1  0.275561D+01          0.440218          1.013640
 Vib (Bot)    2  0.274263D+00         -0.561832         -1.293667
 Vib (V=0)       0.375110D+01          0.574159          1.322049
 Vib (V=0)    1  0.330061D+01          0.518594          1.194107
 Vib (V=0)    2  0.107028D+01          0.029498          0.067921
 Electronic      0.100000D+01          0.000000          0.000000
 Translational   0.118737D+08          7.074585         16.289833
 Rotational      0.965015D+04          3.984534          9.174729
 -------------------------------------------------------------------
 Center     Atomic                   Forces (Hartrees/Bohr)
 Number     Number              X              Y              Z
 -------------------------------------------------------------------
      1        6          -0.000248591    0.000011986    0.000060527
      2        7          -0.000017605   -0.000057945   -0.000013130
      3        8           0.000198814    0.000013247   -0.000023560
      4        1           0.000041381   -0.000068158   -0.000000290
      5        1          -0.000018522    0.000017408   -0.000003347
      6        1           0.000044522    0.000083463   -0.000020200
 -------------------------------------------------------------------
 Cartesian Forces:  Max     0.000248591 RMS     0.000083690

 GradGradGradGradGradGradGradGradGradGradGradGradGradGradGradGradGradGrad
 Berny optimization.
 Internal  Forces:  Max     0.000176595 RMS     0.000071876
 Search for a local minimum.
 Step number   1 out of a maximum of    2
 All quantities printed in internal units (Hartrees-Bohrs-Radians)
 Second derivative matrix not updated -- analytic derivatives used.
 The second derivative matrix:
                          R1        R2        R3        R4        R5
           R1           0.46190
           R2           0.07820   0.84955
           R3           0.01762   0.03304   0.31219
           R4           0.00785  -0.00094  -0.00033   0.47354
           R5           0.00394  -0.00106   0.00064  -0.00227   0.47797
           A1           0.01884   0.03051  -0.01493  -0.00813   0.00775
           A2           0.01115  -0.04112   0.01498   0.00730  -0.00426
           A3          -0.02999   0.01061  -0.00005   0.00083  -0.00349
           A4           0.00236   0.00010   0.00226   0.00704  -0.00868
           A5           0.00932   0.00293   0.00032  -0.01016   0.00279
           A6          -0.01167  -0.00303  -0.00258   0.00312   0.00589
           D1           0.00000  -0.00002   0.00000   0.00000   0.00000
           D2          -0.00002  -0.00001   0.00000   0.00000   0.00000
           D3           0.00002   0.00001   0.00000   0.00000   0.00000
           D4          -0.00001   0.00001   0.00000  -0.00001   0.00000
                          A1        A2        A3        A4        A5
           A1           0.16819
           A2          -0.08405   0.12127
           A3          -0.08414  -0.03722   0.12136
           A4          -0.02379   0.01926   0.00452   0.07605
           A5           0.02154  -0.01525  -0.00629  -0.04044   0.07869
           A6           0.00225  -0.00401   0.00176  -0.03561  -0.03825
           D1          -0.00002   0.00000   0.00001   0.00000   0.00000
           D2          -0.00002  -0.00001   0.00001   0.00000   0.00000
           D3           0.00002   0.00001  -0.00001   0.00000   0.00000
           D4           0.00002   0.00001  -0.00001   0.00000   0.00000
                          A6        D1        D2        D3        D4
           A6           0.07385
           D1           0.00000   0.02744
           D2           0.00000   0.02844   0.03068
           D3           0.00000  -0.01611  -0.02116   0.02910
           D4           0.00000  -0.01511  -0.01893   0.02404   0.02023
     Eigenvalues ---    0.00025   0.01777   0.08942   0.10192   0.11164
     Eigenvalues ---    0.15519   0.25003   0.31771   0.45048   0.47628
     Eigenvalues ---    0.48036   0.870931000.000001000.000001000.00000
 Angle between quadratic step and forces=  48.52 degrees.
 Linear search not attempted -- first point.
 Iteration  1 RMS(Cart)=  0.00032217 RMS(Int)=  0.00000011
 Iteration  2 RMS(Cart)=  0.00000010 RMS(Int)=  0.00000004
 Variable       Old X    -DE/DX   Delta X   Delta X   Delta X     New X
                                 (Linear)    (Quad)   (Total)
    R1        2.57398   0.00005   0.00000   0.00019   0.00019   2.57417
    R2        2.29803  -0.00018   0.00000  -0.00024  -0.00024   2.29779
    R3        2.09488   0.00008   0.00000   0.00028   0.00028   2.09515
    R4        1.91047   0.00007   0.00000   0.00013   0.00013   1.91059
    R5        1.90653  -0.00001   0.00000   0.00001   0.00001   1.90653
    A1        2.18207  -0.00011   0.00000  -0.00034  -0.00034   2.18173
    A2        1.95369   0.00001   0.00000  -0.00022  -0.00022   1.95348
    A3        2.14743   0.00010   0.00000   0.00055   0.00055   2.14798
    A4        2.07968   0.00006   0.00000   0.00046   0.00046   2.08014
    A5        2.12639  -0.00006   0.00000  -0.00040  -0.00040   2.12599
    A6        2.07712  -0.00001   0.00000  -0.00006  -0.00006   2.07705
    D1       -0.00010  -0.00002   0.00000   0.00008   0.00008  -0.00002
    D2       -3.14091  -0.00002   0.00000  -0.00065  -0.00065  -3.14157
    D3        3.14108   0.00002   0.00000   0.00050   0.00050   3.14158
    D4        0.00027   0.00002   0.00000  -0.00024  -0.00024   0.00003
         Item               Value     Threshold  Converged?
 Maximum Force            0.000177     0.000450     YES
 RMS     Force            0.000072     0.000300     YES
 Maximum Displacement     0.000526     0.001800     YES
 RMS     Displacement     0.000322     0.001200     YES
 Predicted change in Energy=-1.227679D-07
 Optimization completed.
    -- Stationary point found.
                           ----------------------------
                           !   Optimized Parameters   !
                           ! (Angstroms and Degrees)  !
 --------------------------                            --------------------------
 ! Name  Definition              Value          Derivative Info.                !
 --------------------------------------------------------------------------------
 ! R1    R(1,2)                  1.3621         -DE/DX =    0.0                 !
 ! R2    R(1,3)                  1.2161         -DE/DX =   -0.0002              !
 ! R3    R(1,6)                  1.1086         -DE/DX =    0.0001              !
 ! R4    R(2,4)                  1.011          -DE/DX =    0.0001              !
 ! R5    R(2,5)                  1.0089         -DE/DX =    0.0                 !
 ! A1    A(2,1,3)              125.0232         -DE/DX =   -0.0001              !
 ! A2    A(2,1,6)              111.9384         -DE/DX =    0.0                 !
 ! A3    A(3,1,6)              123.0384         -DE/DX =    0.0001              !
 ! A4    A(1,2,4)              119.1569         -DE/DX =    0.0001              !
 ! A5    A(1,2,5)              121.8332         -DE/DX =   -0.0001              !
 ! A6    A(4,2,5)              119.0099         -DE/DX =    0.0                 !
 ! D1    D(3,1,2,4)             -0.006          -DE/DX =    0.0                 !
 ! D2    D(3,1,2,5)           -179.9611         -DE/DX =    0.0                 !
 ! D3    D(6,1,2,4)            179.9706         -DE/DX =    0.0                 !
 ! D4    D(6,1,2,5)              0.0154         -DE/DX =    0.0                 !
 --------------------------------------------------------------------------------
 GradGradGradGradGradGradGradGradGradGradGradGradGradGradGradGradGradGrad

 1\1\GINC-CLODOMIRA\Freq\RB3LYP\6-31G(d)\C1H3N1O1\DIEGOA\08-Oct-2019\0\
 \#N Geom=AllCheck Guess=TCheck SCRF=Check GenChk RB3LYP/6-31G(d) Freq\
 \Title\\0,1\C,-0.1568886185,0.3900445984,-0.0001313026\N,1.089295646,-
 0.1597839003,-0.0001035739\O,-1.1974028102,-0.2393517038,0.0000597254\
 H,1.1835470203,-1.1663559863,0.0001801747\H,1.9221495974,0.4096145952,
 0.0003120594\H,-0.1207308351,1.4980153967,0.0000689171\\Version=EM64L-
 G09RevA.01\HF=-169.8888431\RMSD=3.119e-09\RMSF=8.369e-05\ZeroPoint=0.0
 452519\Thermal=0.0492652\Dipole=1.4811213,0.2846273,0.0003506\DipoleDe
 riv=1.8486345,-0.0339157,-0.000036,-0.0491889,0.950707,0.0000283,-0.00
 00887,-0.0000152,0.3210548,-1.0201799,0.20291,0.0001822,0.4663522,-0.3
 357118,-0.0000352,0.0003839,-0.0000373,-0.6904082,-1.1502845,-0.107873
 8,-0.000036,-0.3745528,-0.6352807,-0.0000021,0.0001003,0.0000631,-0.40
 20461,0.1478316,-0.0225927,-0.0000346,-0.0067255,0.1559422,0.0000368,-
 0.0001427,0.0000943,0.3546301,0.1605231,0.0065873,-0.000059,-0.0187955
 ,0.1363316,-0.0000244,-0.0002385,-0.0000188,0.3599846,0.0134752,-0.045
 1151,-0.0000166,-0.0170894,-0.2719883,-0.0000033,-0.0000142,-0.000086,
 0.0567848\Polar=28.4449209,0.7511166,21.5773961,-0.0001414,0.0000582,9
 .6648702\PolarDeriv=3.3653175,2.0667822,-1.5737505,-0.0015163,-0.00029
 27,0.2959133,4.1419712,1.649493,-7.8825002,-0.0000558,-0.0011336,0.450
 6558,-0.0019683,0.0007411,-0.0006139,-0.205854,0.6117594,-0.002577,-1.
 9899564,-2.8875149,-1.8532453,-0.0029146,-0.0004472,0.1092668,-2.53211
 6,-2.339747,4.9660044,-0.0005682,-0.0023651,-0.3225858,-0.0030124,-0.0
 009646,-0.002615,2.6623515,-0.6685743,-0.0018758,-11.0190681,-1.595393
 9,1.3087993,0.0014769,0.0004573,-0.3276521,-3.5083362,-4.0206162,-1.79
 83461,0.0002683,0.0005284,-0.6363292,0.0009454,-0.0001893,-0.0002251,-
 3.7364271,-1.4903545,0.0014607,1.5262157,-1.1909957,0.000675,0.0005926
 ,-0.0000084,-0.0516151,-2.1139029,2.6295777,-7.9402888,-0.0006326,0.00
 10963,0.0605479,0.0008754,-0.0003669,0.0015675,0.2423787,-1.5655946,0.
 0007779,8.1482198,1.7610116,1.2187139,0.0019519,0.0002384,-0.0260985,3
 .5134427,2.5903412,2.0242553,0.0009846,0.0009393,-0.0643843,0.0027026,
 0.0008971,0.0008686,1.1601325,0.8153882,0.0012229,-0.0307285,1.8461106
 ,0.8988075,0.0004096,0.0000526,0.0001856,0.4989413,-0.5090487,10.63087
 54,0.0000036,0.0009346,0.5120956,0.0004573,-0.0001172,0.0010179,-0.122
 5816,2.2973759,0.0009913\HyperPolar=36.6016062,27.7683798,29.508292,26
 .5702879,0.0160265,0.0014018,0.0161714,2.4566986,0.7562185,-0.0061084\
 PG=C01 [X(C1H3N1O1)]\NImag=0\\0.93130847,0.17288720,0.77735241,-0.0000
 5460,-0.00000795,0.18704303,-0.30862986,0.10155918,0.00000484,0.815429
 51,0.08691195,-0.20437376,-0.00000939,0.04567645,0.83958744,-0.0000433
 3,0.00000927,-0.04231291,0.00022023,-0.00004102,0.01209635,-0.55415200
 ,-0.28937121,0.00006816,-0.09139292,-0.02097788,0.00001608,0.65284820,
 -0.28640125,-0.30450376,0.00004022,-0.00501101,0.04048848,0.00000661,0
 .33380281,0.28349129,0.00007919,0.00005101,-0.07355457,0.00000438,0.00
 000287,0.01914869,-0.00008591,-0.00005055,0.03256768,0.00951225,0.0385
 8775,-0.00000991,-0.08070372,0.03388240,-0.00003360,0.00223920,-0.0067
 0488,0.00000285,0.06451637,0.00269586,-0.01431016,0.00000332,0.0309495
 2,-0.45085379,0.00011350,-0.00263119,0.00222201,-0.00000163,-0.0403609
 1,0.46957422,0.00000957,-0.00000390,0.00096399,-0.00003884,0.00014814,
 -0.00452388,-0.00000546,-0.00000217,-0.00591047,0.00002637,-0.00012254
 ,0.00872446,-0.01488430,-0.02646292,-0.00000766,-0.33524341,-0.1815744
 0,-0.00015888,-0.00467604,0.00600964,-0.00000182,0.00973968,0.00673839
 ,0.00000641,0.34426841,0.01107308,0.01725421,0.00000909,-0.18039861,-0
 .20556504,-0.00008488,0.00394713,-0.00040964,-0.00000244,-0.02807178,-
 0.00710901,-0.00001764,0.19392760,0.19671535,0.00001209,-0.00000160,-0
 .01094458,-0.00018908,-0.00010102,0.00510731,0.00000236,-0.00000104,0.
 00822693,0.00001484,0.00000596,-0.00600001,0.00015933,0.00009611,0.004
 95086,-0.06315456,0.00280000,-0.00000083,0.00054041,0.03608148,-0.0000
 0049,-0.00486643,-0.04169532,0.00000131,-0.00530377,0.00260833,0.00000
 195,0.00079566,-0.00047742,0.00000045,0.07198869,0.01283315,-0.2714189
 4,-0.00003528,0.00722447,-0.01928334,-0.00000348,-0.02476965,-0.021288
 39,0.00000074,0.00266742,0.00047673,-0.00000190,0.00136168,-0.00088589
 ,0.00000159,0.00068293,0.31239983,-0.00000292,-0.00004683,-0.06119495,
 -0.00000153,0.00000042,0.01048444,0.00000476,0.00000692,0.01952175,-0.
 00000054,0.00000140,0.00674592,0.00000261,-0.00000024,-0.00134051,-0.0
 0000239,0.00003833,0.02578336\\0.00024859,-0.00001199,-0.00006053,0.00
 001761,0.00005795,0.00001313,-0.00019881,-0.00001325,0.00002356,-0.000
 04138,0.00006816,0.00000029,0.00001852,-0.00001741,0.00000335,-0.00004
 452,-0.00008346,0.00002020\\\@


 OLD HORSE! OLD HORSE! WHAT BROUGHT YOU HERE?
 FROM SACARAP' TO PORTLAND PIER
 I'VE CARTED STONE THIS MANY A YEAR;
 TILL, KILLED BY BLOWS AND SORE ABUSE,
 THEY SALTED ME DOWN FOR SAILORS' USE.
 THE SAILORS THEY DO ME DESPISE;
 THEY TURN ME OVER AND DAMN MY EYES;
 CUT OFF MY MEAT, AND SCRAPE MY BONES,
 AND PITCH ME OVER TO DAVY JONES.

    SAILORS' COMPLAINT ABOUT THE BEEF
    SERVED ON SHIPBOARD, CIRCA 1835.
 Job cpu time:  0 days  0 hours  0 minutes 22.2 seconds.
 File lengths (MBytes):  RWF=      5 Int=      0 D2E=      0 Chk=      1 Scr=      1
 Normal termination of Gaussian 09 at Tue Oct  8 22:31:26 2019.
