Title                                                                   
Freq      RB3LYP                                                      6-31G(d)            
Number of atoms                            I                6
Info1-9                                    I   N=           9
          14          14        1002           0           0         100
           6          18        -502
Charge                                     I                0
Multiplicity                               I                1
Number of electrons                        I               24
Number of alpha electrons                  I               12
Number of beta electrons                   I               12
Number of basis functions                  I               51
Number of independent functions            I               51
Number of point charges in /Mol/           I                0
Number of translation vectors              I                0
Atomic numbers                             I   N=           6
           6           7           8           1           1           1
Nuclear charges                            R   N=           6
  6.00000000E+00  7.00000000E+00  8.00000000E+00  1.00000000E+00  1.00000000E+00
  1.00000000E+00
Current cartesian coordinates              R   N=          18
 -2.96476522E-01  7.37077471E-01 -2.48126006E-04  2.05847045E+00 -3.01947812E-01
 -1.95726380E-04 -2.26276338E+00 -4.52309170E-01  1.12864686E-04  2.23657973E+00
 -2.20409339E+00  3.40480764E-04  3.63233633E+00  7.74059405E-01  5.89706710E-04
 -2.28148214E-01  2.83083884E+00  1.30234512E-04
Force Field                                I                0
Int Atom Types                             I   N=           6
           0           0           0           0           0           0
MM charges                                 R   N=           6
  0.00000000E+00  0.00000000E+00  0.00000000E+00  0.00000000E+00  0.00000000E+00
  0.00000000E+00
Integer atomic weights                     I   N=           6
          12          14          16           1           1           1
Real atomic weights                        R   N=           6
  1.20000000E+01  1.40030740E+01  1.59949146E+01  1.00782504E+00  1.00782504E+00
  1.00782504E+00
Atom fragment info                         I   N=           6
           0           0           0           0           0           0
Atom residue num                           I   N=           6
           0           0           0           0           0           0
Nuclear spins                              I   N=           6
           0           2           0           1           1           1
Nuclear ZEff                               R   N=           6
 -3.60000000E+00 -4.55000000E+00 -5.60000000E+00 -1.00000000E+00 -1.00000000E+00
 -1.00000000E+00
Nuclear QMom                               R   N=           6
  0.00000000E+00  2.04400000E+00  0.00000000E+00  0.00000000E+00  0.00000000E+00
  0.00000000E+00
Nuclear GFac                               R   N=           6
  0.00000000E+00  4.03761000E-01  0.00000000E+00  2.79284600E+00  2.79284600E+00
  2.79284600E+00
MicOpt                                     I   N=           6
          -1          -1          -1          -1          -1          -1
Number of contracted shells                I               18
Number of primitive shells                 I               45
Pure/Cartesian d shells                    I                1
Pure/Cartesian f shells                    I                0
Highest angular momentum                   I                2
Largest degree of contraction              I                6
Shell types                                I   N=          18
           0          -1          -1           2           0          -1
          -1           2           0          -1          -1           2
           0           0           0           0           0           0
Number of primitives per shell             I   N=          18
           6           3           1           1           6           3
           1           1           6           3           1           1
           3           1           3           1           3           1
Shell to atom map                          I   N=          18
           1           1           1           1           2           2
           2           2           3           3           3           3
           4           4           5           5           6           6
Primitive exponents                        R   N=          45
  3.04752488E+03  4.57369518E+02  1.03948685E+02  2.92101553E+01  9.28666296E+00
  3.16392696E+00  7.86827235E+00  1.88128854E+00  5.44249258E-01  1.68714478E-01
  8.00000000E-01  4.17351146E+03  6.27457911E+02  1.42902093E+02  4.02343293E+01
  1.28202129E+01  4.39043701E+00  1.16263619E+01  2.71627981E+00  7.72218397E-01
  2.12031498E-01  8.00000000E-01  5.48467166E+03  8.25234946E+02  1.88046958E+02
  5.29645000E+01  1.68975704E+01  5.79963534E+00  1.55396162E+01  3.59993359E+00
  1.01376175E+00  2.70005823E-01  8.00000000E-01  1.87311370E+01  2.82539436E+00
  6.40121692E-01  1.61277759E-01  1.87311370E+01  2.82539436E+00  6.40121692E-01
  1.61277759E-01  1.87311370E+01  2.82539436E+00  6.40121692E-01  1.61277759E-01
Contraction coefficients                   R   N=          45
  1.83473713E-03  1.40373228E-02  6.88426223E-02  2.32184443E-01  4.67941348E-01
  3.62311985E-01 -1.19332420E-01 -1.60854152E-01  1.14345644E+00  1.00000000E+00
  1.00000000E+00  1.83477216E-03  1.39946270E-02  6.85865518E-02  2.32240873E-01
  4.69069948E-01  3.60455199E-01 -1.14961182E-01 -1.69117479E-01  1.14585195E+00
  1.00000000E+00  1.00000000E+00  1.83107443E-03  1.39501722E-02  6.84450781E-02
  2.32714336E-01  4.70192898E-01  3.58520853E-01 -1.10777550E-01 -1.48026263E-01
  1.13076702E+00  1.00000000E+00  1.00000000E+00  3.34946043E-02  2.34726953E-01
  8.13757326E-01  1.00000000E+00  3.34946043E-02  2.34726953E-01  8.13757326E-01
  1.00000000E+00  3.34946043E-02  2.34726953E-01  8.13757326E-01  1.00000000E+00
P(S=P) Contraction coefficients            R   N=          45
  0.00000000E+00  0.00000000E+00  0.00000000E+00  0.00000000E+00  0.00000000E+00
  0.00000000E+00  6.89990666E-02  3.16423961E-01  7.44308291E-01  1.00000000E+00
  0.00000000E+00  0.00000000E+00  0.00000000E+00  0.00000000E+00  0.00000000E+00
  0.00000000E+00  0.00000000E+00  6.75797439E-02  3.23907296E-01  7.40895140E-01
  1.00000000E+00  0.00000000E+00  0.00000000E+00  0.00000000E+00  0.00000000E+00
  0.00000000E+00  0.00000000E+00  0.00000000E+00  7.08742682E-02  3.39752839E-01
  7.27158577E-01  1.00000000E+00  0.00000000E+00  0.00000000E+00  0.00000000E+00
  0.00000000E+00  0.00000000E+00  0.00000000E+00  0.00000000E+00  0.00000000E+00
  0.00000000E+00  0.00000000E+00  0.00000000E+00  0.00000000E+00  0.00000000E+00
Coordinates of each shell                  R   N=          54
 -2.96476522E-01  7.37077471E-01 -2.48126006E-04 -2.96476522E-01  7.37077471E-01
 -2.48126006E-04 -2.96476522E-01  7.37077471E-01 -2.48126006E-04 -2.96476522E-01
  7.37077471E-01 -2.48126006E-04  2.05847045E+00 -3.01947812E-01 -1.95726380E-04
  2.05847045E+00 -3.01947812E-01 -1.95726380E-04  2.05847045E+00 -3.01947812E-01
 -1.95726380E-04  2.05847045E+00 -3.01947812E-01 -1.95726380E-04 -2.26276338E+00
 -4.52309170E-01  1.12864686E-04 -2.26276338E+00 -4.52309170E-01  1.12864686E-04
 -2.26276338E+00 -4.52309170E-01  1.12864686E-04 -2.26276338E+00 -4.52309170E-01
  1.12864686E-04  2.23657973E+00 -2.20409339E+00  3.40480764E-04  2.23657973E+00
 -2.20409339E+00  3.40480764E-04  3.63233633E+00  7.74059405E-01  5.89706710E-04
  3.63233633E+00  7.74059405E-01  5.89706710E-04 -2.28148214E-01  2.83083884E+00
  1.30234512E-04 -2.28148214E-01  2.83083884E+00  1.30234512E-04
Density Number of contracted shells        I               60
Density Number of primitive shells         I               60
Density Pure/Cartesian d shells            I                0
Density Pure/Cartesian f shells            I                0
Density Highest angular momentum           I                3
Density Largest degree of contraction      I                1
Density Shell types                        I   N=          60
           0           0           0           0          -1          -2
          -1          -2          -1          -2          -1          -2
          -3          -1          -2          -3           0           0
           0           0          -1          -2          -1          -2
          -1          -2          -1          -2          -3          -1
          -2          -3           0           0           0           0
          -1          -2          -1          -2          -1          -2
          -1          -2          -3          -1          -2          -3
           0           0           0           0           0           0
           0           0           0           0           0           0
Density Number of primitives per shell     I   N=          60
           1           1           1           1           1           1
           1           1           1           1           1           1
           1           1           1           1           1           1
           1           1           1           1           1           1
           1           1           1           1           1           1
           1           1           1           1           1           1
           1           1           1           1           1           1
           1           1           1           1           1           1
           1           1           1           1           1           1
           1           1           1           1           1           1
Density Shell to atom map                  I   N=          60
           1           1           1           1           1           1
           1           1           1           1           1           1
           1           1           1           1           2           2
           2           2           2           2           2           2
           2           2           2           2           2           2
           2           2           3           3           3           3
           3           3           3           3           3           3
           3           3           3           3           3           3
           4           4           4           4           5           5
           5           5           6           6           6           6
Density Primitive exponents                R   N=          60
  6.09504976E+03  9.14739036E+02  2.07897370E+02  5.84203106E+01  1.70961976E+01
  1.70961976E+01  6.32785392E+00  6.32785392E+00  3.76257708E+00  3.76257708E+00
  1.31969604E+00  1.31969604E+00  1.31969604E+00  3.37428956E-01  3.37428956E-01
  3.37428956E-01  8.34702292E+03  1.25491582E+03  2.85804186E+02  8.04686586E+01
  2.44174064E+01  2.44174064E+01  8.78087402E+00  8.78087402E+00  5.43255961E+00
  5.43255961E+00  1.57197292E+00  1.57197292E+00  1.57197292E+00  4.24062995E-01
  4.24062995E-01  4.24062995E-01  1.09693433E+04  1.65046989E+03  3.76093916E+02
  1.05929000E+02  3.24087494E+01  3.24087494E+01  1.15992707E+01  1.15992707E+01
  7.19986717E+00  7.19986717E+00  1.80112121E+00  1.80112121E+00  1.80112121E+00
  5.40011645E-01  5.40011645E-01  5.40011645E-01  3.74622739E+01  5.65078873E+00
  1.28024338E+00  3.22555518E-01  3.74622739E+01  5.65078873E+00  1.28024338E+00
  3.22555518E-01  3.74622739E+01  5.65078873E+00  1.28024338E+00  3.22555518E-01
Density Contraction coefficients           R   N=          60
  1.00000000E+00  1.00000000E+00  1.00000000E+00  1.00000000E+00  1.00000000E+00
  1.00000000E+00  1.00000000E+00  1.00000000E+00  1.00000000E+00  1.00000000E+00
  1.00000000E+00  1.00000000E+00  1.00000000E+00  1.00000000E+00  1.00000000E+00
  1.00000000E+00  1.00000000E+00  1.00000000E+00  1.00000000E+00  1.00000000E+00
  1.00000000E+00  1.00000000E+00  1.00000000E+00  1.00000000E+00  1.00000000E+00
  1.00000000E+00  1.00000000E+00  1.00000000E+00  1.00000000E+00  1.00000000E+00
  1.00000000E+00  1.00000000E+00  1.00000000E+00  1.00000000E+00  1.00000000E+00
  1.00000000E+00  1.00000000E+00  1.00000000E+00  1.00000000E+00  1.00000000E+00
  1.00000000E+00  1.00000000E+00  1.00000000E+00  1.00000000E+00  1.00000000E+00
  1.00000000E+00  1.00000000E+00  1.00000000E+00  1.00000000E+00  1.00000000E+00
  1.00000000E+00  1.00000000E+00  1.00000000E+00  1.00000000E+00  1.00000000E+00
  1.00000000E+00  1.00000000E+00  1.00000000E+00  1.00000000E+00  1.00000000E+00
Density P(S=P) Contraction coefficients    R   N=          60
  0.00000000E+00  0.00000000E+00  0.00000000E+00  0.00000000E+00  1.00000000E+00
  0.00000000E+00  1.00000000E+00  0.00000000E+00  1.00000000E+00  0.00000000E+00
  1.00000000E+00  0.00000000E+00  0.00000000E+00  1.00000000E+00  0.00000000E+00
  0.00000000E+00  0.00000000E+00  0.00000000E+00  0.00000000E+00  0.00000000E+00
  1.00000000E+00  0.00000000E+00  1.00000000E+00  0.00000000E+00  1.00000000E+00
  0.00000000E+00  1.00000000E+00  0.00000000E+00  0.00000000E+00  1.00000000E+00
  0.00000000E+00  0.00000000E+00  0.00000000E+00  0.00000000E+00  0.00000000E+00
  0.00000000E+00  1.00000000E+00  0.00000000E+00  1.00000000E+00  0.00000000E+00
  1.00000000E+00  0.00000000E+00  1.00000000E+00  0.00000000E+00  0.00000000E+00
  1.00000000E+00  0.00000000E+00  0.00000000E+00  0.00000000E+00  0.00000000E+00
  0.00000000E+00  0.00000000E+00  0.00000000E+00  0.00000000E+00  0.00000000E+00
  0.00000000E+00  0.00000000E+00  0.00000000E+00  0.00000000E+00  0.00000000E+00
Density Coordinates of each shell          R   N=         180
 -2.96476522E-01  7.37077471E-01 -2.48126006E-04 -2.96476522E-01  7.37077471E-01
 -2.48126006E-04 -2.96476522E-01  7.37077471E-01 -2.48126006E-04 -2.96476522E-01
  7.37077471E-01 -2.48126006E-04 -2.96476522E-01  7.37077471E-01 -2.48126006E-04
 -2.96476522E-01  7.37077471E-01 -2.48126006E-04 -2.96476522E-01  7.37077471E-01
 -2.48126006E-04 -2.96476522E-01  7.37077471E-01 -2.48126006E-04 -2.96476522E-01
  7.37077471E-01 -2.48126006E-04 -2.96476522E-01  7.37077471E-01 -2.48126006E-04
 -2.96476522E-01  7.37077471E-01 -2.48126006E-04 -2.96476522E-01  7.37077471E-01
 -2.48126006E-04 -2.96476522E-01  7.37077471E-01 -2.48126006E-04 -2.96476522E-01
  7.37077471E-01 -2.48126006E-04 -2.96476522E-01  7.37077471E-01 -2.48126006E-04
 -2.96476522E-01  7.37077471E-01 -2.48126006E-04  2.05847045E+00 -3.01947812E-01
 -1.95726380E-04  2.05847045E+00 -3.01947812E-01 -1.95726380E-04  2.05847045E+00
 -3.01947812E-01 -1.95726380E-04  2.05847045E+00 -3.01947812E-01 -1.95726380E-04
  2.05847045E+00 -3.01947812E-01 -1.95726380E-04  2.05847045E+00 -3.01947812E-01
 -1.95726380E-04  2.05847045E+00 -3.01947812E-01 -1.95726380E-04  2.05847045E+00
 -3.01947812E-01 -1.95726380E-04  2.05847045E+00 -3.01947812E-01 -1.95726380E-04
  2.05847045E+00 -3.01947812E-01 -1.95726380E-04  2.05847045E+00 -3.01947812E-01
 -1.95726380E-04  2.05847045E+00 -3.01947812E-01 -1.95726380E-04  2.05847045E+00
 -3.01947812E-01 -1.95726380E-04  2.05847045E+00 -3.01947812E-01 -1.95726380E-04
  2.05847045E+00 -3.01947812E-01 -1.95726380E-04  2.05847045E+00 -3.01947812E-01
 -1.95726380E-04 -2.26276338E+00 -4.52309170E-01  1.12864686E-04 -2.26276338E+00
 -4.52309170E-01  1.12864686E-04 -2.26276338E+00 -4.52309170E-01  1.12864686E-04
 -2.26276338E+00 -4.52309170E-01  1.12864686E-04 -2.26276338E+00 -4.52309170E-01
  1.12864686E-04 -2.26276338E+00 -4.52309170E-01  1.12864686E-04 -2.26276338E+00
 -4.52309170E-01  1.12864686E-04 -2.26276338E+00 -4.52309170E-01  1.12864686E-04
 -2.26276338E+00 -4.52309170E-01  1.12864686E-04 -2.26276338E+00 -4.52309170E-01
  1.12864686E-04 -2.26276338E+00 -4.52309170E-01  1.12864686E-04 -2.26276338E+00
 -4.52309170E-01  1.12864686E-04 -2.26276338E+00 -4.52309170E-01  1.12864686E-04
 -2.26276338E+00 -4.52309170E-01  1.12864686E-04 -2.26276338E+00 -4.52309170E-01
  1.12864686E-04 -2.26276338E+00 -4.52309170E-01  1.12864686E-04  2.23657973E+00
 -2.20409339E+00  3.40480764E-04  2.23657973E+00 -2.20409339E+00  3.40480764E-04
  2.23657973E+00 -2.20409339E+00  3.40480764E-04  2.23657973E+00 -2.20409339E+00
  3.40480764E-04  3.63233633E+00  7.74059405E-01  5.89706710E-04  3.63233633E+00
  7.74059405E-01  5.89706710E-04  3.63233633E+00  7.74059405E-01  5.89706710E-04
  3.63233633E+00  7.74059405E-01  5.89706710E-04 -2.28148214E-01  2.83083884E+00
  1.30234512E-04 -2.28148214E-01  2.83083884E+00  1.30234512E-04 -2.28148214E-01
  2.83083884E+00  1.30234512E-04 -2.28148214E-01  2.83083884E+00  1.30234512E-04
Constraint Structure                       R   N=          18
 -2.96476522E-01  7.37077471E-01 -2.48126006E-04  2.05847045E+00 -3.01947812E-01
 -1.95726380E-04 -2.26276338E+00 -4.52309170E-01  1.12864686E-04  2.23657973E+00
 -2.20409339E+00  3.40480764E-04  3.63233633E+00  7.74059405E-01  5.89706710E-04
 -2.28148214E-01  2.83083884E+00  1.30234512E-04
Num ILSW                                   I              100
ILSW                                       I   N=         100
           0           1           0           0           2           0
           0           0           0           0         402          -1
           0           0           0           0           0           0
           0           0           1           0           1           0
           1           1           0           0           0           0
           0           0      100000           0          -1           0
           0           0           0           0           0           0
           0           0           0           1           0           0
           0           0           1           0           0           0
           0           0           4          40           0           0
           0           0           5           0           0           0
           0           0           0           0           0           0
           0           0           0           0           0           0
           0           0           0           0           0           0
           0           0           0           0           0           0
           0           0           0           0           0           0
           0           0           0           0
Num RLSW                                   I               40
RLSW                                       R   N=          40
  8.00000000E-01  7.20000000E-01  1.00000000E+00  8.10000000E-01  2.00000000E-01
  0.00000000E+00  0.00000000E+00  1.00000000E+00  0.00000000E+00  0.00000000E+00
  0.00000000E+00  0.00000000E+00  1.00000000E+00  0.00000000E+00  0.00000000E+00
  0.00000000E+00  0.00000000E+00  1.00000000E+00  0.00000000E+00  0.00000000E+00
  0.00000000E+00  0.00000000E+00  1.00000000E+00  0.00000000E+00  0.00000000E+00
  0.00000000E+00  0.00000000E+00  1.00000000E+00  0.00000000E+00  0.00000000E+00
  0.00000000E+00  0.00000000E+00  0.00000000E+00  0.00000000E+00  0.00000000E+00
  0.00000000E+00  0.00000000E+00  0.00000000E+00  1.00000000E+00  1.00000000E+00
MxBond                                     I                3
NBond                                      I   N=           6
           3           3           1           1           1           1
IBond                                      I   N=          18
           2           3           6           1           4           5
           1           0           0           2           0           0
           2           0           0           1           0           0
RBond                                      R   N=          18
  1.41000000E+00  2.00000000E+00  1.00000000E+00  1.41000000E+00  1.00000000E+00
  1.00000000E+00  2.00000000E+00  0.00000000E+00  0.00000000E+00  1.00000000E+00
  0.00000000E+00  0.00000000E+00  1.00000000E+00  0.00000000E+00  0.00000000E+00
  1.00000000E+00  0.00000000E+00  0.00000000E+00
Virial Ratio                               R      2.009088919173578E+00
SCF Energy                                 R     -1.698888431165408E+02
Total Energy                               R     -1.698888431165408E+02
RMS Force                                  R      8.369041523638329E-05
RMS Density                                R      3.119493781750843E-09
External E-field                           R   N=          35
  0.00000000E+00  0.00000000E+00  0.00000000E+00  0.00000000E+00  0.00000000E+00
  0.00000000E+00  0.00000000E+00  0.00000000E+00  0.00000000E+00  0.00000000E+00
  0.00000000E+00  0.00000000E+00  0.00000000E+00  0.00000000E+00  0.00000000E+00
  0.00000000E+00  0.00000000E+00  0.00000000E+00  0.00000000E+00  0.00000000E+00
  0.00000000E+00  0.00000000E+00  0.00000000E+00  0.00000000E+00  0.00000000E+00
  0.00000000E+00  0.00000000E+00  0.00000000E+00  0.00000000E+00  0.00000000E+00
  0.00000000E+00  0.00000000E+00  0.00000000E+00  0.00000000E+00  0.00000000E+00
IOpCl                                      I                0
IROHF                                      I                0
Alpha Orbital Energies                     R   N=          51
 -1.91168566E+01 -1.43658220E+01 -1.02895136E+01 -1.03142440E+00 -9.09471313E-01
 -6.27365471E-01 -5.57604796E-01 -4.79451083E-01 -4.09856788E-01 -4.00799177E-01
 -2.72460730E-01 -2.54721938E-01  2.97318790E-02  7.20500363E-02  1.08495463E-01
  1.63409292E-01  2.68819049E-01  3.42658100E-01  5.35380921E-01  5.53339864E-01
  6.48820385E-01  6.78514522E-01  6.95811900E-01  7.11047610E-01  8.39855761E-01
  8.60541190E-01  8.70319663E-01  8.85643603E-01  1.00658927E+00  1.07505472E+00
  1.21291161E+00  1.29111707E+00  1.37539155E+00  1.47452979E+00  1.51640418E+00
  1.68465756E+00  1.77720097E+00  1.85089181E+00  1.86892607E+00  2.03381156E+00
  2.10007638E+00  2.27216284E+00  2.29093586E+00  2.48749018E+00  2.63082275E+00
  2.66354849E+00  2.90920436E+00  3.00655220E+00  3.73578684E+00  3.86138513E+00
  4.18165798E+00
Alpha MO coefficients                      R   N=        2601
  1.59473202E-05  5.44776298E-04  6.31623586E-05 -2.38079378E-05 -3.03217938E-08
 -3.01000487E-03  2.22846724E-03  2.02544436E-03 -3.06367823E-07 -6.58359622E-04
 -2.69873441E-04 -7.31086410E-06 -4.39767640E-04  1.31422973E-07  1.07333871E-07
 -8.45750353E-06  1.27839814E-06 -9.04260929E-06  9.41031326E-05 -1.73278531E-08
  2.00890250E-04 -3.08863547E-04 -7.52804203E-04  6.91539566E-08 -9.99295242E-05
  3.31677423E-05 -1.26011925E-05 -1.01457425E-04 -9.61673281E-09 -5.06394254E-08
  9.92768557E-01  2.57613572E-02  1.05458140E-03  6.02450828E-04 -2.19599119E-07
  1.35126267E-02  1.35310997E-03  7.02175350E-04 -2.80638978E-07 -7.66249508E-03
 -7.94327243E-03 -8.08173686E-03  2.66246015E-04 -9.42364750E-08 -4.90859117E-08
 -1.42718168E-04 -2.63261001E-04  1.78485614E-04  4.36991634E-06 -2.28554449E-05
 -6.15484095E-04  4.40537307E-05  2.33939138E-04  2.96087010E-04 -1.65510766E-04
 -3.67773043E-09 -6.60016005E-04 -2.84304434E-04  6.37472230E-05  8.66820127E-08
  1.36846611E-04  5.16545916E-05 -6.74095420E-06 -5.00791397E-05 -2.02032954E-08
 -1.00043255E-08  9.92598545E-01  3.48476712E-02  1.29379899E-04 -1.62210891E-05
  5.73036261E-07  4.65980477E-03 -6.28447572E-05  5.61181796E-06 -1.18715272E-07
 -8.46335271E-03 -8.39910929E-03 -8.45773294E-03  3.37284943E-05  1.88481865E-08
 -3.02971604E-09  3.88179937E-06  3.30139932E-05 -1.94758161E-05 -1.51490708E-06
  3.18277473E-09 -6.66632316E-05 -6.80763491E-05 -1.71939376E-06 -2.53584157E-08
 -7.42522596E-05  1.93540104E-05  1.73704060E-05  3.04397467E-06  1.25656859E-10
 -9.56244199E-09  3.00134251E-04 -5.86584551E-04  2.99299086E-04 -5.65488168E-04
 -1.46234138E-05  4.38203347E-05  9.92788765E-01  4.81904413E-02 -2.16050962E-05
 -5.82006932E-04  4.07650630E-08 -6.68701627E-03 -1.92147475E-03 -2.32561425E-03
 -2.33249623E-07 -8.49463587E-03 -9.18542610E-03 -9.83457529E-03  3.02447428E-04
 -1.20303063E-07 -6.08719647E-08 -1.81392130E-04 -8.66827323E-05  3.02842907E-04
 -2.29870832E-04  8.33588500E-09  1.39995298E-03  4.80990495E-04  9.10651481E-04
  9.58954813E-08 -5.98665872E-04 -2.28381467E-04 -2.46972483E-05  2.92156749E-04
 -3.06322905E-08  7.97557109E-08 -1.45781150E-04  3.64264971E-04  9.97815417E-06
 -1.34426146E-05 -2.49591413E-08 -2.78278912E-03 -1.66999699E-03 -8.06849236E-04
  5.50525818E-07 -1.17792839E-04  1.29663457E-04  3.34486595E-04 -2.06578888E-04
  1.74367303E-07  8.57847526E-08  1.54082119E-04  3.45561792E-04 -1.96545390E-04
 -1.78079522E-04 -2.70671812E-04  2.78904306E-03 -1.30234776E-01  2.57255602E-01
 -1.12203200E-01 -1.04344688E-01  2.96202911E-05  7.40815644E-02  9.93886235E-03
  3.29381939E-02 -5.98647910E-07  1.17888168E-02 -6.18588335E-03 -2.20118641E-02
  1.79623591E-02 -5.43926628E-06 -2.76129036E-06 -6.09789073E-02  1.25855885E-01
 -4.36952613E-02  7.70715716E-03  1.39260255E-05  1.18431653E-01 -2.47652059E-02
 -5.22537569E-03  6.94203837E-06  9.51247245E-03  1.78066561E-03 -6.04727560E-03
 -1.81160385E-03  1.33831197E-06 -4.11029502E-07 -1.79717922E-01  3.90097057E-01
  1.36287890E-01  7.61910584E-02 -2.35337218E-05  3.62794054E-01  4.96495791E-02
  2.11548268E-02 -8.84858480E-06  6.46883376E-03 -5.07770091E-03 -6.70024395E-03
  9.84218835E-03 -3.24126624E-06 -1.58843806E-06  2.94884528E-02 -8.64447252E-04
  2.66636722E-02  1.44858931E-03  3.22014109E-02 -1.67865966E-02 -3.33760961E-02
  6.85843649E-02  2.10052197E-01  3.32297816E-03 -5.88266112E-06  1.35534480E-02
  7.58467505E-03  1.06150347E-02 -2.99010715E-06  5.87034612E-03 -1.34197965E-03
 -3.14275833E-03 -2.12506193E-02  5.29085336E-06  1.81080364E-06 -1.89418546E-01
  3.97594869E-01 -1.03040754E-02  1.80909089E-02  5.47297023E-05  4.02742620E-01
  2.46264560E-03  6.99471571E-03  2.93797609E-05  5.38032202E-03  1.18198099E-02
 -1.70571903E-02  2.86874828E-03  9.54892352E-06 -5.76502106E-07  8.33844681E-02
 -1.87004545E-01 -3.46903453E-02 -3.77076997E-02  1.09097567E-05 -1.63368778E-01
 -1.33286327E-03 -9.83972692E-03  2.29092960E-06  1.43853938E-03 -8.16331448E-04
  8.75640728E-04 -2.68794580E-03  9.23109460E-07  1.15528292E-06  1.12616533E-01
  2.86804338E-03  1.21479085E-01  4.51975410E-03  1.95289114E-02  3.04309459E-03
 -1.33026024E-01  2.88136059E-01  1.65544133E-01  1.32968302E-01 -5.56367105E-06
  2.07743700E-01  4.73406820E-02  6.58594891E-02  2.64463781E-06 -8.23620954E-03
  2.45981601E-03 -1.26837645E-02 -6.60425446E-03 -1.96860583E-07  6.51767177E-06
  4.46573317E-02 -9.79197887E-02 -2.56788884E-01  2.29338887E-01 -8.21433829E-05
 -1.35096178E-01 -1.19868429E-01  1.01188027E-01 -4.24326512E-05  3.11920149E-03
 -1.10027960E-02  3.64958825E-03 -1.10551604E-02 -9.60615312E-06  7.60667884E-06
  6.12905564E-02 -1.42014567E-01  3.71542436E-02  4.27525622E-02 -2.05041970E-06
 -1.51342310E-01  3.14079050E-02  2.64416509E-02 -7.32161736E-06  4.42713534E-03
  2.99313251E-03 -1.27853456E-03  6.08780177E-03 -7.57589274E-07 -7.61111196E-07
 -1.64992100E-01 -5.76591456E-02 -8.32480144E-02 -2.82645043E-02  1.60484068E-01
  5.97808516E-02  1.72023072E-02 -4.50778196E-02 -1.02591219E-01  2.11863524E-01
  3.81558877E-05 -1.31598902E-02 -8.05862735E-03  4.94505561E-02  8.87545728E-06
  7.74865232E-03 -2.52542548E-03  2.73378015E-03  1.58720679E-02  1.75591733E-06
  1.67591278E-06 -8.20089419E-04  3.67439871E-04  3.54433619E-01  2.82291099E-01
  8.80381409E-05 -3.28068888E-03  1.70775823E-01  1.45624999E-01  4.51486878E-05
  8.74451202E-03 -2.60349893E-03 -9.61115231E-04  1.26571929E-02  1.43816228E-05
  1.62528440E-05 -2.94546577E-02  6.22253709E-02 -9.18139620E-02  6.47642088E-02
  2.19584873E-05  1.08145823E-01 -4.21172679E-02  3.54859304E-02  1.00617074E-05
 -1.19480136E-02  3.17162463E-03 -6.93278787E-04  1.57279002E-03  3.34305232E-06
  5.41677488E-07 -1.31449549E-01 -5.43548630E-02  2.53562582E-01  1.23861416E-01
  8.07768367E-02  5.80964460E-02  4.77302465E-02 -1.03323715E-01  2.26437519E-01
 -2.68753921E-01 -6.40326270E-05 -1.50284814E-01  3.89686830E-02 -9.10956799E-02
 -2.00982879E-05  1.78364722E-02 -1.66445557E-02  1.78868856E-03 -1.05490902E-04
 -3.27375334E-07 -3.33528672E-06 -1.40860164E-02  3.25474884E-02 -1.25919521E-01
  3.18008364E-01 -7.02736163E-05  5.42901369E-02 -7.25703066E-02  1.72779558E-01
 -4.30313936E-05  7.65826638E-03 -1.68269060E-02 -2.64952688E-04  8.65260357E-03
  6.68283923E-07  1.23858358E-05 -5.16515079E-02  1.07929962E-01 -4.57754533E-02
 -2.19629051E-01 -1.03962520E-05  2.08965137E-01 -1.27339804E-02 -1.10836794E-01
 -7.67751493E-06  4.89417506E-04 -1.76184279E-02 -1.90202785E-03 -1.28804538E-02
 -2.07218891E-06  1.68280703E-06 -1.90424789E-01 -1.06246913E-01  6.31011405E-02
  3.57787708E-02 -1.94636982E-01 -1.32961818E-01 -3.85011451E-02  1.04864833E-01
 -2.33515546E-01 -2.57525662E-01 -3.23434569E-05  4.71621289E-02 -2.47889380E-02
 -4.52368819E-02 -2.53673834E-05 -2.92495878E-04 -1.52612738E-02 -5.90496969E-03
  1.26541988E-02  1.06555765E-06 -1.96706601E-06  4.94090501E-03 -1.19987689E-02
  9.52935947E-02  9.37550618E-02  9.45379975E-06 -1.36092596E-02  4.37255571E-02
  2.83183036E-02  5.43770334E-06  1.28935884E-02 -9.91858484E-03 -2.71431509E-04
  9.15134813E-03  5.85488481E-06  5.07729610E-06  8.37372387E-02 -1.68946928E-01
  4.54124976E-01  1.97449139E-01 -1.47340049E-04 -3.70437147E-01  2.44199183E-01
  1.00882763E-01 -8.46076261E-05  3.22601270E-02  5.62762756E-03  5.54159192E-04
  1.45387740E-02 -1.08655719E-05 -5.15995305E-06 -7.23070674E-02 -6.99934933E-02
  9.52276115E-02  7.64103747E-02 -1.16591986E-01 -1.30384721E-01  5.31434882E-06
 -9.53177888E-06  4.69412846E-05 -7.81394128E-05  3.76377399E-01 -3.52598107E-05
  2.28427441E-05 -2.71867650E-05  1.94989444E-01 -5.81784223E-06 -9.18854505E-07
  4.88052355E-06 -1.08544178E-06 -2.42947093E-03 -1.44848183E-02  2.26453481E-05
 -5.10189957E-05 -9.18462251E-05  3.83957152E-05  3.11394870E-01 -8.49801244E-05
 -6.41807000E-05  2.19145289E-05  2.13511392E-01 -1.86540658E-06 -6.04152162E-06
  1.01727125E-05  8.95171165E-07 -1.00055548E-02  4.21580245E-03  8.94445536E-06