 Entering Gaussian System, Link 0=g09
 Input=freq0.com
 Output=freq0.log
 Initial command:
 /home/diegoa/progs/g09/l1.exe /home/diegoa/g09scratch/Gau-21206.inp -scrdir=/home/diegoa/g09scratch/
 Default is to use a total of   4 processors:
                                4 via shared-memory
                                1 via Linda
 Entering Link 1 = /home/diegoa/progs/g09/l1.exe PID=     21214.
  
 Copyright (c) 1988,1990,1992,1993,1995,1998,2003,2009, Gaussian, Inc.
                  All Rights Reserved.
  
 This is part of the Gaussian(R) 09 program.  It is based on
 the Gaussian(R) 03 system (copyright 2003, Gaussian, Inc.),
 the Gaussian(R) 98 system (copyright 1998, Gaussian, Inc.),
 the Gaussian(R) 94 system (copyright 1995, Gaussian, Inc.),
 the Gaussian 92(TM) system (copyright 1992, Gaussian, Inc.),
 the Gaussian 90(TM) system (copyright 1990, Gaussian, Inc.),
 the Gaussian 88(TM) system (copyright 1988, Gaussian, Inc.),
 the Gaussian 86(TM) system (copyright 1986, Carnegie Mellon
 University), and the Gaussian 82(TM) system (copyright 1983,
 Carnegie Mellon University). Gaussian is a federally registered
 trademark of Gaussian, Inc.
  
 This software contains proprietary and confidential information,
 including trade secrets, belonging to Gaussian, Inc.
  
 This software is provided under written license and may be
 used, copied, transmitted, or stored only in accord with that
 written license.
  
 The following legend is applicable only to US Government
 contracts under FAR:
  
                    RESTRICTED RIGHTS LEGEND
  
 Use, reproduction and disclosure by the US Government is
 subject to restrictions as set forth in subparagraphs (a)
 and (c) of the Commercial Computer Software - Restricted
 Rights clause in FAR 52.227-19.
  
 Gaussian, Inc.
 340 Quinnipiac St., Bldg. 40, Wallingford CT 06492
  
  
 ---------------------------------------------------------------
 Warning -- This program may not be used in any manner that
 competes with the business of Gaussian, Inc. or will provide
 assistance to any competitor of Gaussian, Inc.  The licensee
 of this program is prohibited from giving any competitor of
 Gaussian, Inc. access to this program.  By using this program,
 the user acknowledges that Gaussian, Inc. is engaged in the
 business of creating and licensing software in the field of
 computational chemistry and represents and warrants to the
 licensee that it is not a competitor of Gaussian, Inc. and that
 it will not use this program in any manner prohibited above.
 ---------------------------------------------------------------
  

 Cite this work as:
 Gaussian 09, Revision A.01,
 M. J. Frisch, G. W. Trucks, H. B. Schlegel, G. E. Scuseria, 
 M. A. Robb, J. R. Cheeseman, G. Scalmani, V. Barone, B. Mennucci, 
 G. A. Petersson, H. Nakatsuji, M. Caricato, X. Li, H. P. Hratchian, 
 A. F. Izmaylov, J. Bloino, G. Zheng, J. L. Sonnenberg, M. Hada, 
 M. Ehara, K. Toyota, R. Fukuda, J. Hasegawa, M. Ishida, T. Nakajima, 
 Y. Honda, O. Kitao, H. Nakai, T. Vreven, J. A. Montgomery, Jr., 
 J. E. Peralta, F. Ogliaro, M. Bearpark, J. J. Heyd, E. Brothers, 
 K. N. Kudin, V. N. Staroverov, R. Kobayashi, J. Normand, 
 K. Raghavachari, A. Rendell, J. C. Burant, S. S. Iyengar, J. Tomasi, 
 M. Cossi, N. Rega, J. M. Millam, M. Klene, J. E. Knox, J. B. Cross, 
 V. Bakken, C. Adamo, J. Jaramillo, R. Gomperts, R. E. Stratmann, 
 O. Yazyev, A. J. Austin, R. Cammi, C. Pomelli, J. W. Ochterski, 
 R. L. Martin, K. Morokuma, V. G. Zakrzewski, G. A. Voth, 
 P. Salvador, J. J. Dannenberg, S. Dapprich, A. D. Daniels, 
 O. Farkas, J. B. Foresman, J. V. Ortiz, J. Cioslowski, 
 and D. J. Fox, Gaussian, Inc., Wallingford CT, 2009.
 
 ******************************************
 Gaussian 09:  EM64L-G09RevA.01  8-May-2009
                 1-Nov-2019 
 ******************************************
 %chk=freq.chk
 %NProcShared=4
 Will use up to    4 processors via shared memory.
 Default route:  MP2=Direct MaxDisk=1000GB DenFit
 -------------------------------------------
 # pbepbe/sto-3g opt(maxcycles=500) SCRF=PCM
 -------------------------------------------
 1/6=500,14=-1,18=20,19=15,26=3,38=1/1,3;
 2/9=110,12=2,17=6,18=5,40=1/2;
 3/6=3,11=2,16=1,25=1,30=1,70=2201,71=1,72=1,74=1009,82=47/1,2,3;
 4//1;
 5/5=2,38=5/2;
 6/7=2,8=2,9=2,10=2,28=1/1;
 7//1,2,3,16;
 1/6=500,14=-1,18=20,19=15/3(2);
 2/9=110/2;
 99//99;
 2/9=110/2;
 3/6=3,11=2,16=1,25=1,30=1,70=2205,71=1,74=1009,82=47/1,2,3;
 4/5=5,16=3/1;
 5/5=2,38=5/2;
 7//1,2,3,16;
 1/6=500,14=-1,18=20,19=15/3(-5);
 2/9=110/2;
 6/7=2,8=2,9=2,10=2,19=2,28=1/1;
 99/9=1/99;
 -----
 Title
 -----
 Symbolic Z-matrix:
 Charge =  0 Multiplicity = 1
 6                    -0.99721  -2.29733  -0.17868 
 7                     1.00651  -0.83107  -0.3013 
 6                     0.40064  -2.11338  -0.35968 
 6                     1.4279   -3.1212   -0.59025 
 6                     2.6577   -2.44277  -0.63973 
 6                     2.39117  -1.00514  -0.445 
 6                     4.00325  -3.08913  -0.96276 
 6                     1.16995  -4.61574  -0.8097 
 6                     0.75207  -5.41749   0.48079 
 6                    -0.7976   -5.6085    0.71429 
 8                    -1.32091  -6.23588   1.68191 
 8                    -1.57567  -5.01224  -0.32268 
 6                     3.2413    0.18069  -0.44351 
 7                     5.55639  -0.63654   0.22344 
 6                     4.60157   0.32961  -0.1882 
 6                     5.32741   1.63428  -0.2693 
 6                     6.63543   1.44517   0.11685 
 6                     6.85928  -0.01116   0.50241 
 6                     4.66481   2.9299   -0.7266 
 6                     7.7593    2.47921   0.20926 
 6                     9.09554   1.93726  -0.38456 
 8                     7.87991  -0.62059   0.95103 
 7                    -3.94549   3.6456   -0.44999 
 6                    -4.43624   4.97595  -0.79443 
 6                    -3.32108   5.97665  -0.29405 
 6                    -2.14867   5.08528   0.26379 
 6                    -2.63902   3.6193    0.10016 
 6                    -2.88719   6.92972  -1.44703 
 6                    -1.78402   5.41777   1.75178 
 6                    -1.15964   6.83212   1.91119 
 8                    -5.53358   5.21132  -1.36719 
 6                    -1.87351   2.51769   0.40693 
 7                    -1.1958    0.1595    0.07988 
 6                    -2.20963   1.08891   0.31923 
 6                    -3.47224   0.36061   0.51159 
 6                    -3.20655  -1.01208   0.36055 
 6                    -1.7851   -1.14049   0.07222 
 6                    -4.81059   0.95683   0.94584 
 6                    -4.15973  -2.18775   0.5816 
 6                    -4.44456  -3.00342  -0.73503 
 6                    -5.00086  -4.42428  -0.42367 
 8                    -6.09205  -4.96683  -0.73064 
 8                    -4.02218  -5.15466   0.39598 
 1                    -1.3831   -3.35977  -0.23516 
 1                     4.66933  -2.38856  -1.50198 
 1                     4.53247  -3.43591  -0.04876 
 1                     3.85612  -3.98023  -1.60345 
 1                     0.36664  -4.74516  -1.56765 
 1                     2.08995  -5.07966  -1.22176 
 1                     1.19274  -6.43795   0.43107 
 1                     1.1758   -4.94048   1.39149 
 1                    -2.58941  -5.15774  -0.00048 
 1                     2.6963    1.12505  -0.6188 
 1                     5.28901  -1.5969    0.54988 
 1                     5.40736   3.74683  -0.79017 
 1                     4.19522   2.80442  -1.72318 
 1                     3.8698    3.23923  -0.01727 
 1                     7.45856   3.41484  -0.30699 
 1                     7.9273    2.73685   1.27995 
 1                     9.91301   2.66587  -0.22426 
 1                     9.35569   0.98286   0.11328 
 1                     8.9964    1.7529   -1.47059 
 1                    -4.43659   2.76765  -0.75394 
 1                    -3.76124   6.58705   0.52758 
 1                    -1.23657   5.22798  -0.36038 
 1                    -2.17192   7.68698  -1.07312 
 1                    -2.40209   6.36275  -2.26374 
 1                    -3.77121   7.45297  -1.86059 
 1                    -2.69692   5.33665   2.37782 
 1                    -1.0648    4.6558    2.11942 
 1                    -0.88176   7.01054   2.96749 
 1                    -0.24809   6.92816   1.29147 
 1                    -1.87251   7.62073   1.6052 
 1                    -0.82846   2.72867   0.6939 
 1                     0.05699  -0.00209  -0.10543 
 1                    -5.49298   1.13797   0.08728 
 1                    -5.33705   0.26433   1.63124 
 1                    -4.66734   1.91668   1.478 
 1                    -3.70931  -2.88562   1.32228 
 1                    -5.12268  -1.83261   1.00327 
 1                    -5.18224  -2.47858  -1.37479 
 1                    -3.50248  -3.11534  -1.31432 
 1                    -4.44861  -6.09101   0.49702 
 

 GradGradGradGradGradGradGradGradGradGradGradGradGradGradGradGradGradGrad
 Berny optimization.
 Initialization pass.
                           ----------------------------
                           !    Initial Parameters    !
                           ! (Angstroms and Degrees)  !
 --------------------------                            --------------------------
 ! Name  Definition              Value          Derivative Info.                !
 --------------------------------------------------------------------------------
 ! R1    R(1,3)                  1.4215         estimate D2E/DX2                !
 ! R2    R(1,37)                 1.422          estimate D2E/DX2                !
 ! R3    R(1,44)                 1.1318         estimate D2E/DX2                !
 ! R4    R(2,3)                  1.4194         estimate D2E/DX2                !
 ! R5    R(2,6)                  1.4029         estimate D2E/DX2                !
 ! R6    R(2,75)                 1.2756         estimate D2E/DX2                !
 ! R7    R(3,4)                  1.4574         estimate D2E/DX2                !
 ! R8    R(4,5)                  1.4054         estimate D2E/DX2                !
 ! R9    R(4,8)                  1.5324         estimate D2E/DX2                !
 ! R10   R(5,6)                  1.475          estimate D2E/DX2                !
 ! R11   R(5,7)                  1.5273         estimate D2E/DX2                !
 ! R12   R(6,13)                 1.4591         estimate D2E/DX2                !
 ! R13   R(7,45)                 1.1069         estimate D2E/DX2                !
 ! R14   R(7,46)                 1.1116         estimate D2E/DX2                !
 ! R15   R(7,47)                 1.1073         estimate D2E/DX2                !
 ! R16   R(8,9)                  1.5757         estimate D2E/DX2                !
 ! R17   R(8,48)                 1.112          estimate D2E/DX2                !
 ! R18   R(8,49)                 1.1097         estimate D2E/DX2                !
 ! R19   R(9,10)                 1.5788         estimate D2E/DX2                !
 ! R20   R(9,50)                 1.1127         estimate D2E/DX2                !
 ! R21   R(9,51)                 1.112          estimate D2E/DX2                !
 ! R22   R(10,11)                1.2664         estimate D2E/DX2                !
 ! R23   R(10,12)                1.427          estimate D2E/DX2                !
 ! R24   R(12,44)                1.6659         estimate D2E/DX2                !
 ! R25   R(12,52)                1.0736         estimate D2E/DX2                !
 ! R26   R(13,15)                1.392          estimate D2E/DX2                !
 ! R27   R(13,53)                1.1043         estimate D2E/DX2                !
 ! R28   R(14,15)                1.4194         estimate D2E/DX2                !
 ! R29   R(14,18)                1.4719         estimate D2E/DX2                !
 ! R30   R(14,54)                1.049          estimate D2E/DX2                !
 ! R31   R(15,16)                1.4952         estimate D2E/DX2                !
 ! R32   R(16,17)                1.3769         estimate D2E/DX2                !
 ! R33   R(16,19)                1.5254         estimate D2E/DX2                !
 ! R34   R(17,18)                1.523          estimate D2E/DX2                !
 ! R35   R(17,20)                1.53           estimate D2E/DX2                !
 ! R36   R(18,22)                1.2706         estimate D2E/DX2                !
 ! R37   R(19,55)                1.1058         estimate D2E/DX2                !
 ! R38   R(19,56)                1.1088         estimate D2E/DX2                !
 ! R39   R(19,57)                1.1095         estimate D2E/DX2                !
 ! R40   R(20,21)                1.5594         estimate D2E/DX2                !
 ! R41   R(20,58)                1.1101         estimate D2E/DX2                !
 ! R42   R(20,59)                1.114          estimate D2E/DX2                !
 ! R43   R(21,60)                1.1067         estimate D2E/DX2                !
 ! R44   R(21,61)                1.1074         estimate D2E/DX2                !
 ! R45   R(21,62)                1.106          estimate D2E/DX2                !
 ! R46   R(23,24)                1.4592         estimate D2E/DX2                !
 ! R47   R(23,27)                1.4178         estimate D2E/DX2                !
 ! R48   R(23,63)                1.0509         estimate D2E/DX2                !
 ! R49   R(24,25)                1.5797         estimate D2E/DX2                !
 ! R50   R(24,31)                1.26           estimate D2E/DX2                !
 ! R51   R(25,26)                1.5749         estimate D2E/DX2                !
 ! R52   R(25,28)                1.5576         estimate D2E/DX2                !
 ! R53   R(25,64)                1.1142         estimate D2E/DX2                !
 ! R54   R(26,27)                1.5545         estimate D2E/DX2                !
 ! R55   R(26,29)                1.5677         estimate D2E/DX2                !
 ! R56   R(26,65)                1.1144         estimate D2E/DX2                !
 ! R57   R(27,32)                1.3761         estimate D2E/DX2                !
 ! R58   R(28,66)                1.1067         estimate D2E/DX2                !
 ! R59   R(28,67)                1.1063         estimate D2E/DX2                !
 ! R60   R(28,68)                1.1074         estimate D2E/DX2                !
 ! R61   R(29,30)                1.5542         estimate D2E/DX2                !
 ! R62   R(29,69)                1.1099         estimate D2E/DX2                !
 ! R63   R(29,70)                1.1104         estimate D2E/DX2                !
 ! R64   R(30,71)                1.1067         estimate D2E/DX2                !
 ! R65   R(30,72)                1.1064         estimate D2E/DX2                !
 ! R66   R(30,73)                1.1062         estimate D2E/DX2                !
 ! R67   R(32,34)                1.4704         estimate D2E/DX2                !
 ! R68   R(32,74)                1.1041         estimate D2E/DX2                !
 ! R69   R(33,34)                1.396          estimate D2E/DX2                !
 ! R70   R(33,37)                1.4273         estimate D2E/DX2                !
 ! R71   R(33,75)                1.2767         estimate D2E/DX2                !
 ! R72   R(34,35)                1.4702         estimate D2E/DX2                !
 ! R73   R(35,36)                1.4063         estimate D2E/DX2                !
 ! R74   R(35,38)                1.5281         estimate D2E/DX2                !
 ! R75   R(36,37)                1.4561         estimate D2E/DX2                !
 ! R76   R(36,39)                1.5296         estimate D2E/DX2                !
 ! R77   R(38,76)                1.1116         estimate D2E/DX2                !
 ! R78   R(38,77)                1.1075         estimate D2E/DX2                !
 ! R79   R(38,78)                1.1068         estimate D2E/DX2                !
 ! R80   R(39,40)                1.5748         estimate D2E/DX2                !
 ! R81   R(39,79)                1.1129         estimate D2E/DX2                !
 ! R82   R(39,80)                1.1096         estimate D2E/DX2                !
 ! R83   R(40,41)                1.5573         estimate D2E/DX2                !
 ! R84   R(40,81)                1.1086         estimate D2E/DX2                !
 ! R85   R(40,82)                1.1116         estimate D2E/DX2                !
 ! R86   R(41,42)                1.2567         estimate D2E/DX2                !
 ! R87   R(41,43)                1.4707         estimate D2E/DX2                !
 ! R88   R(43,52)                1.4866         estimate D2E/DX2                !
 ! R89   R(43,83)                1.0338         estimate D2E/DX2                !
 ! A1    A(3,1,37)             117.5206         estimate D2E/DX2                !
 ! A2    A(3,1,44)             116.7705         estimate D2E/DX2                !
 ! A3    A(37,1,44)            125.7044         estimate D2E/DX2                !
 ! A4    A(3,2,6)              107.7562         estimate D2E/DX2                !
 ! A5    A(3,2,75)             106.0024         estimate D2E/DX2                !
 ! A6    A(6,2,75)             146.2057         estimate D2E/DX2                !
 ! A7    A(1,3,2)              122.1007         estimate D2E/DX2                !
 ! A8    A(1,3,4)              128.5933         estimate D2E/DX2                !
 ! A9    A(2,3,4)              109.2902         estimate D2E/DX2                !
 ! A10   A(3,4,5)              106.7707         estimate D2E/DX2                !
 ! A11   A(3,4,8)              125.3392         estimate D2E/DX2                !
 ! A12   A(5,4,8)              127.81           estimate D2E/DX2                !
 ! A13   A(4,5,6)              107.9217         estimate D2E/DX2                !
 ! A14   A(4,5,7)              125.0356         estimate D2E/DX2                !
 ! A15   A(6,5,7)              126.8403         estimate D2E/DX2                !
 ! A16   A(2,6,5)              108.228          estimate D2E/DX2                !
 ! A17   A(2,6,13)             118.3012         estimate D2E/DX2                !
 ! A18   A(5,6,13)             133.3904         estimate D2E/DX2                !
 ! A19   A(5,7,45)             111.4282         estimate D2E/DX2                !
 ! A20   A(5,7,46)             112.1815         estimate D2E/DX2                !
 ! A21   A(5,7,47)             110.236          estimate D2E/DX2                !
 ! A22   A(45,7,46)            108.1496         estimate D2E/DX2                !
 ! A23   A(45,7,47)            107.9038         estimate D2E/DX2                !
 ! A24   A(46,7,47)            106.7338         estimate D2E/DX2                !
 ! A25   A(4,8,9)              115.0619         estimate D2E/DX2                !
 ! A26   A(4,8,48)             109.4339         estimate D2E/DX2                !
 ! A27   A(4,8,49)             108.7449         estimate D2E/DX2                !
 ! A28   A(9,8,48)             107.9045         estimate D2E/DX2                !
 ! A29   A(9,8,49)             108.1353         estimate D2E/DX2                !
 ! A30   A(48,8,49)            107.287          estimate D2E/DX2                !
 ! A31   A(8,9,10)             116.2963         estimate D2E/DX2                !
 ! A32   A(8,9,50)             108.9679         estimate D2E/DX2                !
 ! A33   A(8,9,51)             110.5749         estimate D2E/DX2                !
 ! A34   A(10,9,50)            106.5224         estimate D2E/DX2                !
 ! A35   A(10,9,51)            107.7468         estimate D2E/DX2                !
 ! A36   A(50,9,51)            106.207          estimate D2E/DX2                !
 ! A37   A(9,10,11)            125.3494         estimate D2E/DX2                !
 ! A38   A(9,10,12)            112.1588         estimate D2E/DX2                !
 ! A39   A(11,10,12)           122.476          estimate D2E/DX2                !
 ! A40   A(10,12,52)           103.8944         estimate D2E/DX2                !
 ! A41   A(6,13,15)            131.0329         estimate D2E/DX2                !
 ! A42   A(6,13,53)            114.0347         estimate D2E/DX2                !
 ! A43   A(15,13,53)           114.8271         estimate D2E/DX2                !
 ! A44   A(15,14,18)           111.1756         estimate D2E/DX2                !
 ! A45   A(15,14,54)           122.8178         estimate D2E/DX2                !
 ! A46   A(18,14,54)           123.7548         estimate D2E/DX2                !
 ! A47   A(13,15,14)           129.6242         estimate D2E/DX2                !
 ! A48   A(13,15,16)           123.9025         estimate D2E/DX2                !
 ! A49   A(14,15,16)           106.4465         estimate D2E/DX2                !
 ! A50   A(15,16,17)           109.0332         estimate D2E/DX2                !
 ! A51   A(15,16,19)           123.1294         estimate D2E/DX2                !
 ! A52   A(17,16,19)           127.8357         estimate D2E/DX2                !
 ! A53   A(16,17,18)           109.9958         estimate D2E/DX2                !
 ! A54   A(16,17,20)           128.4579         estimate D2E/DX2                !
 ! A55   A(18,17,20)           121.5332         estimate D2E/DX2                !
 ! A56   A(14,18,17)           103.1908         estimate D2E/DX2                !
 ! A57   A(14,18,22)           125.042          estimate D2E/DX2                !
 ! A58   A(17,18,22)           131.7659         estimate D2E/DX2                !
 ! A59   A(16,19,55)           110.6726         estimate D2E/DX2                !
 ! A60   A(16,19,56)           110.9346         estimate D2E/DX2                !
 ! A61   A(16,19,57)           110.8801         estimate D2E/DX2                !
 ! A62   A(55,19,56)           108.4406         estimate D2E/DX2                !
 ! A63   A(55,19,57)           108.1773         estimate D2E/DX2                !
 ! A64   A(56,19,57)           107.6216         estimate D2E/DX2                !
 ! A65   A(17,20,21)           111.8112         estimate D2E/DX2                !
 ! A66   A(17,20,58)           110.0315         estimate D2E/DX2                !
 ! A67   A(17,20,59)           108.9743         estimate D2E/DX2                !
 ! A68   A(21,20,58)           110.3617         estimate D2E/DX2                !
 ! A69   A(21,20,59)           108.49           estimate D2E/DX2                !
 ! A70   A(58,20,59)           107.031          estimate D2E/DX2                !
 ! A71   A(20,21,60)           110.4247         estimate D2E/DX2                !
 ! A72   A(20,21,61)           109.245          estimate D2E/DX2                !
 ! A73   A(20,21,62)           110.7955         estimate D2E/DX2                !
 ! A74   A(60,21,61)           109.1918         estimate D2E/DX2                !
 ! A75   A(60,21,62)           108.5532         estimate D2E/DX2                !
 ! A76   A(61,21,62)           108.5915         estimate D2E/DX2                !
 ! A77   A(24,23,27)           114.7336         estimate D2E/DX2                !
 ! A78   A(24,23,63)           122.4267         estimate D2E/DX2                !
 ! A79   A(27,23,63)           121.8269         estimate D2E/DX2                !
 ! A80   A(23,24,25)           105.388          estimate D2E/DX2                !
 ! A81   A(23,24,31)           124.7851         estimate D2E/DX2                !
 ! A82   A(25,24,31)           129.8264         estimate D2E/DX2                !
 ! A83   A(24,25,26)           106.2117         estimate D2E/DX2                !
 ! A84   A(24,25,28)           110.4755         estimate D2E/DX2                !
 ! A85   A(24,25,64)           107.563          estimate D2E/DX2                !
 ! A86   A(26,25,28)           113.6506         estimate D2E/DX2                !
 ! A87   A(26,25,64)           110.0571         estimate D2E/DX2                !
 ! A88   A(28,25,64)           108.7057         estimate D2E/DX2                !
 ! A89   A(25,26,27)           105.1682         estimate D2E/DX2                !
 ! A90   A(25,26,29)           112.9124         estimate D2E/DX2                !
 ! A91   A(25,26,65)           109.781          estimate D2E/DX2                !
 ! A92   A(27,26,29)           111.9203         estimate D2E/DX2                !
 ! A93   A(27,26,65)           108.6623         estimate D2E/DX2                !
 ! A94   A(29,26,65)           108.3059         estimate D2E/DX2                !
 ! A95   A(23,27,26)           108.3024         estimate D2E/DX2                !
 ! A96   A(23,27,32)           127.8754         estimate D2E/DX2                !
 ! A97   A(26,27,32)           123.7809         estimate D2E/DX2                !
 ! A98   A(25,28,66)           110.4029         estimate D2E/DX2                !
 ! A99   A(25,28,67)           110.7962         estimate D2E/DX2                !
 ! A100  A(25,28,68)           110.0715         estimate D2E/DX2                !
 ! A101  A(66,28,67)           108.4639         estimate D2E/DX2                !
 ! A102  A(66,28,68)           108.5904         estimate D2E/DX2                !
 ! A103  A(67,28,68)           108.4525         estimate D2E/DX2                !
 ! A104  A(26,29,30)           112.5691         estimate D2E/DX2                !
 ! A105  A(26,29,69)           109.1807         estimate D2E/DX2                !
 ! A106  A(26,29,70)           108.6247         estimate D2E/DX2                !
 ! A107  A(30,29,69)           109.8211         estimate D2E/DX2                !
 ! A108  A(30,29,70)           109.2862         estimate D2E/DX2                !
 ! A109  A(69,29,70)           107.2077         estimate D2E/DX2                !
 ! A110  A(29,30,71)           110.2098         estimate D2E/DX2                !
 ! A111  A(29,30,72)           110.6409         estimate D2E/DX2                !
 ! A112  A(29,30,73)           111.191          estimate D2E/DX2                !
 ! A113  A(71,30,72)           108.2847         estimate D2E/DX2                !
 ! A114  A(71,30,73)           108.1124         estimate D2E/DX2                !
 ! A115  A(72,30,73)           108.3069         estimate D2E/DX2                !
 ! A116  A(27,32,34)           129.5994         estimate D2E/DX2                !
 ! A117  A(27,32,74)           115.5637         estimate D2E/DX2                !
 ! A118  A(34,32,74)           114.6799         estimate D2E/DX2                !
 ! A119  A(34,33,37)           107.9048         estimate D2E/DX2                !
 ! A120  A(34,33,75)           145.262          estimate D2E/DX2                !
 ! A121  A(37,33,75)           106.8034         estimate D2E/DX2                !
 ! A122  A(32,34,33)           119.4145         estimate D2E/DX2                !
 ! A123  A(32,34,35)           132.0547         estimate D2E/DX2                !
 ! A124  A(33,34,35)           108.4398         estimate D2E/DX2                !
 ! A125  A(34,35,36)           107.8916         estimate D2E/DX2                !
 ! A126  A(34,35,38)           126.5861         estimate D2E/DX2                !
 ! A127  A(36,35,38)           125.2271         estimate D2E/DX2                !
 ! A128  A(35,36,37)           106.9652         estimate D2E/DX2                !
 ! A129  A(35,36,39)           128.0974         estimate D2E/DX2                !
 ! A130  A(37,36,39)           124.6925         estimate D2E/DX2                !
 ! A131  A(1,37,33)            120.8734         estimate D2E/DX2                !
 ! A132  A(1,37,36)            130.3609         estimate D2E/DX2                !
 ! A133  A(33,37,36)           108.7634         estimate D2E/DX2                !
 ! A134  A(35,38,76)           112.442          estimate D2E/DX2                !
 ! A135  A(35,38,77)           110.3793         estimate D2E/DX2                !
 ! A136  A(35,38,78)           111.201          estimate D2E/DX2                !
 ! A137  A(76,38,77)           106.7432         estimate D2E/DX2                !
 ! A138  A(76,38,78)           108.0289         estimate D2E/DX2                !
 ! A139  A(77,38,78)           107.8319         estimate D2E/DX2                !
 ! A140  A(36,39,40)           112.9544         estimate D2E/DX2                !
 ! A141  A(36,39,79)           109.0234         estimate D2E/DX2                !
 ! A142  A(36,39,80)           110.4695         estimate D2E/DX2                !
 ! A143  A(40,39,79)           107.7493         estimate D2E/DX2                !
 ! A144  A(40,39,80)           109.0593         estimate D2E/DX2                !
 ! A145  A(79,39,80)           107.3989         estimate D2E/DX2                !
 ! A146  A(39,40,41)           111.7167         estimate D2E/DX2                !
 ! A147  A(39,40,81)           110.955          estimate D2E/DX2                !
 ! A148  A(39,40,82)           109.5466         estimate D2E/DX2                !
 ! A149  A(41,40,81)           108.037          estimate D2E/DX2                !
 ! A150  A(41,40,82)           108.3653         estimate D2E/DX2                !
 ! A151  A(81,40,82)           108.1124         estimate D2E/DX2                !
 ! A152  A(40,41,42)           130.9369         estimate D2E/DX2                !
 ! A153  A(40,41,43)           109.0752         estimate D2E/DX2                !
 ! A154  A(42,41,43)           119.9688         estimate D2E/DX2                !
 ! A155  A(41,43,83)           103.2837         estimate D2E/DX2                !
 ! A156  A(2,75,33)            146.6135         estimate D2E/DX2                !
 ! D1    D(37,1,3,2)            -0.2441         estimate D2E/DX2                !
 ! D2    D(37,1,3,4)           178.1488         estimate D2E/DX2                !
 ! D3    D(44,1,3,2)          -179.5173         estimate D2E/DX2                !
 ! D4    D(44,1,3,4)            -1.1244         estimate D2E/DX2                !
 ! D5    D(3,1,37,33)            2.7782         estimate D2E/DX2                !
 ! D6    D(3,1,37,36)         -176.5958         estimate D2E/DX2                !
 ! D7    D(44,1,37,33)        -178.021          estimate D2E/DX2                !
 ! D8    D(44,1,37,36)           2.6051         estimate D2E/DX2                !
 ! D9    D(6,2,3,1)            176.7876         estimate D2E/DX2                !
 ! D10   D(6,2,3,4)             -1.8816         estimate D2E/DX2                !
 ! D11   D(75,2,3,1)            -1.6365         estimate D2E/DX2                !
 ! D12   D(75,2,3,4)           179.6943         estimate D2E/DX2                !
 ! D13   D(3,2,6,5)              1.6936         estimate D2E/DX2                !
 ! D14   D(3,2,6,13)           178.8646         estimate D2E/DX2                !
 ! D15   D(75,2,6,5)           178.9695         estimate D2E/DX2                !
 ! D16   D(75,2,6,13)           -3.8595         estimate D2E/DX2                !
 ! D17   D(3,2,75,33)            1.712          estimate D2E/DX2                !
 ! D18   D(6,2,75,33)         -175.589          estimate D2E/DX2                !
 ! D19   D(1,3,4,5)           -177.2403         estimate D2E/DX2                !
 ! D20   D(1,3,4,8)              5.8073         estimate D2E/DX2                !
 ! D21   D(2,3,4,5)              1.3174         estimate D2E/DX2                !
 ! D22   D(2,3,4,8)           -175.6351         estimate D2E/DX2                !
 ! D23   D(3,4,5,6)             -0.26           estimate D2E/DX2                !
 ! D24   D(3,4,5,7)           -175.3812         estimate D2E/DX2                !
 ! D25   D(8,4,5,6)            176.5932         estimate D2E/DX2                !
 ! D26   D(8,4,5,7)              1.4721         estimate D2E/DX2                !
 ! D27   D(3,4,8,9)            -73.5172         estimate D2E/DX2                !
 ! D28   D(3,4,8,48)            48.1427         estimate D2E/DX2                !
 ! D29   D(3,4,8,49)           165.0464         estimate D2E/DX2                !
 ! D30   D(5,4,8,9)            110.177          estimate D2E/DX2                !
 ! D31   D(5,4,8,48)          -128.1631         estimate D2E/DX2                !
 ! D32   D(5,4,8,49)           -11.2594         estimate D2E/DX2                !
 ! D33   D(4,5,6,2)             -0.8891         estimate D2E/DX2                !
 ! D34   D(4,5,6,13)          -177.4608         estimate D2E/DX2                !
 ! D35   D(7,5,6,2)            174.1191         estimate D2E/DX2                !
 ! D36   D(7,5,6,13)            -2.4526         estimate D2E/DX2                !
 ! D37   D(4,5,7,45)           147.0398         estimate D2E/DX2                !
 ! D38   D(4,5,7,46)           -91.5348         estimate D2E/DX2                !
 ! D39   D(4,5,7,47)            27.2612         estimate D2E/DX2                !
 ! D40   D(6,5,7,45)           -27.1569         estimate D2E/DX2                !
 ! D41   D(6,5,7,46)            94.2685         estimate D2E/DX2                !
 ! D42   D(6,5,7,47)          -146.9355         estimate D2E/DX2                !
 ! D43   D(2,6,13,15)          159.2677         estimate D2E/DX2                !
 ! D44   D(2,6,13,53)          -16.747          estimate D2E/DX2                !
 ! D45   D(5,6,13,15)          -24.431          estimate D2E/DX2                !
 ! D46   D(5,6,13,53)          159.5543         estimate D2E/DX2                !
 ! D47   D(4,8,9,10)            95.2552         estimate D2E/DX2                !
 ! D48   D(4,8,9,50)          -144.3954         estimate D2E/DX2                !
 ! D49   D(4,8,9,51)           -28.0194         estimate D2E/DX2                !
 ! D50   D(48,8,9,10)          -27.2294         estimate D2E/DX2                !
 ! D51   D(48,8,9,50)           93.12           estimate D2E/DX2                !
 ! D52   D(48,8,9,51)         -150.504          estimate D2E/DX2                !
 ! D53   D(49,8,9,10)         -142.9781         estimate D2E/DX2                !
 ! D54   D(49,8,9,50)          -22.6287         estimate D2E/DX2                !
 ! D55   D(49,8,9,51)           93.7473         estimate D2E/DX2                !
 ! D56   D(8,9,10,11)          179.0691         estimate D2E/DX2                !
 ! D57   D(8,9,10,12)            0.4904         estimate D2E/DX2                !
 ! D58   D(50,9,10,11)          57.4172         estimate D2E/DX2                !
 ! D59   D(50,9,10,12)        -121.1616         estimate D2E/DX2                !
 ! D60   D(51,9,10,11)         -56.1993         estimate D2E/DX2                !
 ! D61   D(51,9,10,12)         125.2219         estimate D2E/DX2                !
 ! D62   D(9,10,12,52)        -176.1767         estimate D2E/DX2                !
 ! D63   D(11,10,12,52)          5.1974         estimate D2E/DX2                !
 ! D64   D(6,13,15,14)          -3.9455         estimate D2E/DX2                !
 ! D65   D(6,13,15,16)         178.2034         estimate D2E/DX2                !
 ! D66   D(53,13,15,14)        172.044          estimate D2E/DX2                !
 ! D67   D(53,13,15,16)         -5.8071         estimate D2E/DX2                !
 ! D68   D(18,14,15,13)       -174.4292         estimate D2E/DX2                !
 ! D69   D(18,14,15,16)          3.7112         estimate D2E/DX2                !
 ! D70   D(54,14,15,13)        -10.9208         estimate D2E/DX2                !
 ! D71   D(54,14,15,16)        167.2196         estimate D2E/DX2                !
 ! D72   D(15,14,18,17)         -4.0591         estimate D2E/DX2                !
 ! D73   D(15,14,18,22)        176.3145         estimate D2E/DX2                !
 ! D74   D(54,14,18,17)       -167.3843         estimate D2E/DX2                !
 ! D75   D(54,14,18,22)         12.9893         estimate D2E/DX2                !
 ! D76   D(13,15,16,17)        176.5285         estimate D2E/DX2                !
 ! D77   D(13,15,16,19)         -3.908          estimate D2E/DX2                !
 ! D78   D(14,15,16,17)         -1.7459         estimate D2E/DX2                !
 ! D79   D(14,15,16,19)        177.8177         estimate D2E/DX2                !
 ! D80   D(15,16,17,18)         -0.7996         estimate D2E/DX2                !
 ! D81   D(15,16,17,20)       -179.4855         estimate D2E/DX2                !
 ! D82   D(19,16,17,18)        179.6632         estimate D2E/DX2                !
 ! D83   D(19,16,17,20)          0.9773         estimate D2E/DX2                !
 ! D84   D(15,16,19,55)       -175.2197         estimate D2E/DX2                !
 ! D85   D(15,16,19,56)        -54.7998         estimate D2E/DX2                !
 ! D86   D(15,16,19,57)         64.7275         estimate D2E/DX2                !
 ! D87   D(17,16,19,55)          4.2579         estimate D2E/DX2                !
 ! D88   D(17,16,19,56)        124.6777         estimate D2E/DX2                !
 ! D89   D(17,16,19,57)       -115.795          estimate D2E/DX2                !
 ! D90   D(16,17,18,14)          2.9075         estimate D2E/DX2                !
 ! D91   D(16,17,18,22)       -177.5025         estimate D2E/DX2                !
 ! D92   D(20,17,18,14)       -178.2998         estimate D2E/DX2                !
 ! D93   D(20,17,18,22)          1.2902         estimate D2E/DX2                !
 ! D94   D(16,17,20,21)       -136.1028         estimate D2E/DX2                !
 ! D95   D(16,17,20,58)        -13.0908         estimate D2E/DX2                !
 ! D96   D(16,17,20,59)        103.9753         estimate D2E/DX2                !
 ! D97   D(18,17,20,21)         45.3461         estimate D2E/DX2                !
 ! D98   D(18,17,20,58)        168.3581         estimate D2E/DX2                !
 ! D99   D(18,17,20,59)        -74.5758         estimate D2E/DX2                !
 ! D100  D(17,20,21,60)       -174.9073         estimate D2E/DX2                !
 ! D101  D(17,20,21,61)        -54.8043         estimate D2E/DX2                !
 ! D102  D(17,20,21,62)         64.7869         estimate D2E/DX2                !
 ! D103  D(58,20,21,60)         62.2683         estimate D2E/DX2                !
 ! D104  D(58,20,21,61)       -177.6287         estimate D2E/DX2                !
 ! D105  D(58,20,21,62)        -58.0375         estimate D2E/DX2                !
 ! D106  D(59,20,21,60)        -54.7017         estimate D2E/DX2                !
 ! D107  D(59,20,21,61)         65.4013         estimate D2E/DX2                !
 ! D108  D(59,20,21,62)       -175.0075         estimate D2E/DX2                !
 ! D109  D(27,23,24,25)         -4.7557         estimate D2E/DX2                !
 ! D110  D(27,23,24,31)        175.5007         estimate D2E/DX2                !
 ! D111  D(63,23,24,25)       -173.4277         estimate D2E/DX2                !
 ! D112  D(63,23,24,31)          6.8287         estimate D2E/DX2                !
 ! D113  D(24,23,27,26)          3.9646         estimate D2E/DX2                !
 ! D114  D(24,23,27,32)       -173.7447         estimate D2E/DX2                !
 ! D115  D(63,23,27,26)        172.7118         estimate D2E/DX2                !
 ! D116  D(63,23,27,32)         -4.9975         estimate D2E/DX2                !
 ! D117  D(23,24,25,26)          3.5222         estimate D2E/DX2                !
 ! D118  D(23,24,25,28)        127.1991         estimate D2E/DX2                !
 ! D119  D(23,24,25,64)       -114.2946         estimate D2E/DX2                !
 ! D120  D(31,24,25,26)       -176.752          estimate D2E/DX2                !
 ! D121  D(31,24,25,28)        -53.0751         estimate D2E/DX2                !
 ! D122  D(31,24,25,64)         65.4313         estimate D2E/DX2                !
 ! D123  D(24,25,26,27)         -1.3723         estimate D2E/DX2                !
 ! D124  D(24,25,26,29)       -123.6829         estimate D2E/DX2                !
 ! D125  D(24,25,26,65)        115.3604         estimate D2E/DX2                !
 ! D126  D(28,25,26,27)       -123.0423         estimate D2E/DX2                !
 ! D127  D(28,25,26,29)        114.6471         estimate D2E/DX2                !
 ! D128  D(28,25,26,65)         -6.3095         estimate D2E/DX2                !
 ! D129  D(64,25,26,27)        114.7757         estimate D2E/DX2                !
 ! D130  D(64,25,26,29)         -7.5349         estimate D2E/DX2                !
 ! D131  D(64,25,26,65)       -128.4916         estimate D2E/DX2                !
 ! D132  D(24,25,28,66)        175.0394         estimate D2E/DX2                !
 ! D133  D(24,25,28,67)        -64.7805         estimate D2E/DX2                !
 ! D134  D(24,25,28,68)         55.1691         estimate D2E/DX2                !
 ! D135  D(26,25,28,66)        -65.6944         estimate D2E/DX2                !
 ! D136  D(26,25,28,67)         54.4857         estimate D2E/DX2                !
 ! D137  D(26,25,28,68)        174.4352         estimate D2E/DX2                !
 ! D138  D(64,25,28,66)         57.2324         estimate D2E/DX2                !
 ! D139  D(64,25,28,67)        177.4124         estimate D2E/DX2                !
 ! D140  D(64,25,28,68)        -62.638          estimate D2E/DX2                !
 ! D141  D(25,26,27,23)         -1.3532         estimate D2E/DX2                !
 ! D142  D(25,26,27,32)        176.4714         estimate D2E/DX2                !
 ! D143  D(29,26,27,23)        121.5966         estimate D2E/DX2                !
 ! D144  D(29,26,27,32)        -60.5788         estimate D2E/DX2                !
 ! D145  D(65,26,27,23)       -118.8477         estimate D2E/DX2                !
 ! D146  D(65,26,27,32)         58.9768         estimate D2E/DX2                !
 ! D147  D(25,26,29,30)        -67.2384         estimate D2E/DX2                !
 ! D148  D(25,26,29,69)         54.995          estimate D2E/DX2                !
 ! D149  D(25,26,29,70)        171.5956         estimate D2E/DX2                !
 ! D150  D(27,26,29,30)        174.3182         estimate D2E/DX2                !
 ! D151  D(27,26,29,69)        -63.4484         estimate D2E/DX2                !
 ! D152  D(27,26,29,70)         53.1522         estimate D2E/DX2                !
 ! D153  D(65,26,29,30)         54.5533         estimate D2E/DX2                !
 ! D154  D(65,26,29,69)        176.7867         estimate D2E/DX2                !
 ! D155  D(65,26,29,70)        -66.6127         estimate D2E/DX2                !
 ! D156  D(23,27,32,34)         -3.4708         estimate D2E/DX2                !
 ! D157  D(23,27,32,74)        171.6794         estimate D2E/DX2                !
 ! D158  D(26,27,32,34)        179.1461         estimate D2E/DX2                !
 ! D159  D(26,27,32,74)         -5.7038         estimate D2E/DX2                !
 ! D160  D(26,29,30,71)       -177.8126         estimate D2E/DX2                !
 ! D161  D(26,29,30,72)        -58.082          estimate D2E/DX2                !
 ! D162  D(26,29,30,73)         62.3181         estimate D2E/DX2                !
 ! D163  D(69,29,30,71)         60.3162         estimate D2E/DX2                !
 ! D164  D(69,29,30,72)       -179.9531         estimate D2E/DX2                !
 ! D165  D(69,29,30,73)        -59.553          estimate D2E/DX2                !
 ! D166  D(70,29,30,71)        -57.0251         estimate D2E/DX2                !
 ! D167  D(70,29,30,72)         62.7056         estimate D2E/DX2                !
 ! D168  D(70,29,30,73)       -176.8943         estimate D2E/DX2                !
 ! D169  D(27,32,34,33)        150.7588         estimate D2E/DX2                !
 ! D170  D(27,32,34,35)        -33.1536         estimate D2E/DX2                !
 ! D171  D(74,32,34,33)        -24.4264         estimate D2E/DX2                !
 ! D172  D(74,32,34,35)        151.6613         estimate D2E/DX2                !
 ! D173  D(37,33,34,32)        178.7457         estimate D2E/DX2                !
 ! D174  D(37,33,34,35)          1.807          estimate D2E/DX2                !
 ! D175  D(75,33,34,32)          1.2055         estimate D2E/DX2                !
 ! D176  D(75,33,34,35)       -175.7333         estimate D2E/DX2                !
 ! D177  D(34,33,37,1)         178.6039         estimate D2E/DX2                !
 ! D178  D(34,33,37,36)         -1.8999         estimate D2E/DX2                !
 ! D179  D(75,33,37,1)          -2.86           estimate D2E/DX2                !
 ! D180  D(75,33,37,36)        176.6362         estimate D2E/DX2                !
 ! D181  D(34,33,75,2)         178.0977         estimate D2E/DX2                !
 ! D182  D(37,33,75,2)           0.5427         estimate D2E/DX2                !
 ! D183  D(32,34,35,36)       -177.4592         estimate D2E/DX2                !
 ! D184  D(32,34,35,38)         -3.4701         estimate D2E/DX2                !
 ! D185  D(33,34,35,36)         -1.0512         estimate D2E/DX2                !
 ! D186  D(33,34,35,38)        172.9379         estimate D2E/DX2                !
 ! D187  D(34,35,36,37)         -0.1237         estimate D2E/DX2                !
 ! D188  D(34,35,36,39)        174.3431         estimate D2E/DX2                !
 ! D189  D(38,35,36,37)       -174.2156         estimate D2E/DX2                !
 ! D190  D(38,35,36,39)          0.2513         estimate D2E/DX2                !
 ! D191  D(34,35,38,76)         99.1406         estimate D2E/DX2                !
 ! D192  D(34,35,38,77)       -141.7857         estimate D2E/DX2                !
 ! D193  D(34,35,38,78)        -22.15           estimate D2E/DX2                !
 ! D194  D(36,35,38,76)        -87.8666         estimate D2E/DX2                !
 ! D195  D(36,35,38,77)         31.2071         estimate D2E/DX2                !
 ! D196  D(36,35,38,78)        150.8428         estimate D2E/DX2                !
 ! D197  D(35,36,37,1)        -179.3335         estimate D2E/DX2                !
 ! D198  D(35,36,37,33)          1.234          estimate D2E/DX2                !
 ! D199  D(39,36,37,1)           5.9617         estimate D2E/DX2                !
 ! D200  D(39,36,37,33)       -173.4708         estimate D2E/DX2                !
 ! D201  D(35,36,39,40)        116.2557         estimate D2E/DX2                !
 ! D202  D(35,36,39,79)       -123.9939         estimate D2E/DX2                !
 ! D203  D(35,36,39,80)         -6.1986         estimate D2E/DX2                !
 ! D204  D(37,36,39,40)        -70.1846         estimate D2E/DX2                !
 ! D205  D(37,36,39,79)         49.5658         estimate D2E/DX2                !
 ! D206  D(37,36,39,80)        167.3612         estimate D2E/DX2                !
 ! D207  D(36,39,40,41)        160.9197         estimate D2E/DX2                !
 ! D208  D(36,39,40,81)        -78.4551         estimate D2E/DX2                !
 ! D209  D(36,39,40,82)         40.8343         estimate D2E/DX2                !
 ! D210  D(79,39,40,41)         40.4391         estimate D2E/DX2                !
 ! D211  D(79,39,40,81)        161.0643         estimate D2E/DX2                !
 ! D212  D(79,39,40,82)        -79.6462         estimate D2E/DX2                !
 ! D213  D(80,39,40,41)        -75.8412         estimate D2E/DX2                !
 ! D214  D(80,39,40,81)         44.7839         estimate D2E/DX2                !
 ! D215  D(80,39,40,82)        164.0734         estimate D2E/DX2                !
 ! D216  D(39,40,41,42)        119.205          estimate D2E/DX2                !
 ! D217  D(39,40,41,43)        -59.1678         estimate D2E/DX2                !
 ! D218  D(81,40,41,42)         -3.1083         estimate D2E/DX2                !
 ! D219  D(81,40,41,43)        178.519          estimate D2E/DX2                !
 ! D220  D(82,40,41,42)       -120.0189         estimate D2E/DX2                !
 ! D221  D(82,40,41,43)         61.6083         estimate D2E/DX2                !
 ! D222  D(40,41,43,83)       -176.55           estimate D2E/DX2                !
 ! D223  D(42,41,43,83)          4.8689         estimate D2E/DX2                !
 --------------------------------------------------------------------------------
 Trust Radius=3.00D-01 FncErr=1.00D-07 GrdErr=1.00D-06
 Number of steps in this run= 498 maximum allowed number of steps= 498.
 GradGradGradGradGradGradGradGradGradGradGradGradGradGradGradGradGradGrad

 Stoichiometry    C33H40N4O6
 Framework group  C1[X(C33H40N4O6)]
 Deg. of freedom   243
 Full point group                 C1      NOp   1
 Largest Abelian subgroup         C1      NOp   1
 Largest concise Abelian subgroup C1      NOp   1
                         Standard orientation:                         
 ---------------------------------------------------------------------
 Center     Atomic      Atomic             Coordinates (Angstroms)
 Number     Number       Type             X           Y           Z
 ---------------------------------------------------------------------
      1          6           0       -0.997214   -2.297329   -0.178677
      2          7           0        1.006514   -0.831065   -0.301303
      3          6           0        0.400644   -2.113384   -0.359676
      4          6           0        1.427897   -3.121196   -0.590246
      5          6           0        2.657704   -2.442772   -0.639732
      6          6           0        2.391171   -1.005144   -0.445001
      7          6           0        4.003246   -3.089126   -0.962762
      8          6           0        1.169950   -4.615737   -0.809701
      9          6           0        0.752072   -5.417486    0.480788
     10          6           0       -0.797604   -5.608502    0.714292
     11          8           0       -1.320907   -6.235876    1.681907
     12          8           0       -1.575671   -5.012236   -0.322679
     13          6           0        3.241301    0.180689   -0.443513
     14          7           0        5.556390   -0.636540    0.223437
     15          6           0        4.601569    0.329605   -0.188196
     16          6           0        5.327412    1.634278   -0.269297
     17          6           0        6.635428    1.445169    0.116853
     18          6           0        6.859276   -0.011159    0.502410
     19          6           0        4.664805    2.929898   -0.726604
     20          6           0        7.759296    2.479208    0.209264
     21          6           0        9.095538    1.937264   -0.384564
     22          8           0        7.879905   -0.620593    0.951033
     23          7           0       -3.945488    3.645596   -0.449994
     24          6           0       -4.436244    4.975948   -0.794428
     25          6           0       -3.321077    5.976651   -0.294051
     26          6           0       -2.148667    5.085279    0.263794
     27          6           0       -2.639020    3.619299    0.100155
     28          6           0       -2.887188    6.929723   -1.447032
     29          6           0       -1.784016    5.417772    1.751778
     30          6           0       -1.159638    6.832122    1.911187
     31          8           0       -5.533579    5.211318   -1.367190
     32          6           0       -1.873514    2.517690    0.406925
     33          7           0       -1.195801    0.159495    0.079882
     34          6           0       -2.209629    1.088906    0.319232
     35          6           0       -3.472244    0.360611    0.511590
     36          6           0       -3.206553   -1.012076    0.360554
     37          6           0       -1.785104   -1.140494    0.072217
     38          6           0       -4.810585    0.956828    0.945836
     39          6           0       -4.159732   -2.187753    0.581598
     40          6           0       -4.444558   -3.003420   -0.735033
     41          6           0       -5.000859   -4.424281   -0.423672
     42          8           0       -6.092048   -4.966829   -0.730643
     43          8           0       -4.022178   -5.154659    0.395979
     44          1           0       -1.383098   -3.359771   -0.235156
     45          1           0        4.669329   -2.388563   -1.501978
     46          1           0        4.532466   -3.435914   -0.048761
     47          1           0        3.856124   -3.980230   -1.603446
     48          1           0        0.366638   -4.745159   -1.567647
     49          1           0        2.089947   -5.079663   -1.221758
     50          1           0        1.192736   -6.437954    0.431073
     51          1           0        1.175802   -4.940478    1.391493
     52          1           0       -2.589407   -5.157743   -0.000482
     53          1           0        2.696303    1.125053   -0.618798
     54          1           0        5.289008   -1.596899    0.549880
     55          1           0        5.407363    3.746833   -0.790173
     56          1           0        4.195224    2.804420   -1.723184
     57          1           0        3.869797    3.239233   -0.017269
     58          1           0        7.458561    3.414840   -0.306985
     59          1           0        7.927300    2.736852    1.279948
     60          1           0        9.913013    2.665865   -0.224257
     61          1           0        9.355694    0.982861    0.113281
     62          1           0        8.996397    1.752896   -1.470591
     63          1           0       -4.436589    2.767653   -0.753942
     64          1           0       -3.761236    6.587048    0.527583
     65          1           0       -1.236573    5.227982   -0.360381
     66          1           0       -2.171923    7.686979   -1.073116
     67          1           0       -2.402091    6.362748   -2.263739
     68          1           0       -3.771209    7.452966   -1.860586
     69          1           0       -2.696921    5.336647    2.377816
     70          1           0       -1.064796    4.655797    2.119415
     71          1           0       -0.881763    7.010537    2.967492
     72          1           0       -0.248088    6.928160    1.291471
     73          1           0       -1.872505    7.620733    1.605200
     74          1           0       -0.828457    2.728671    0.693901
     75          1           0        0.056987   -0.002087   -0.105429
     76          1           0       -5.492984    1.137969    0.087275
     77          1           0       -5.337048    0.264327    1.631239
     78          1           0       -4.667343    1.916678    1.478002
     79          1           0       -3.709310   -2.885619    1.322279
     80          1           0       -5.122678   -1.832607    1.003275
     81          1           0       -5.182239   -2.478580   -1.374793
     82          1           0       -3.502481   -3.115341   -1.314321
     83          1           0       -4.448608   -6.091007    0.497021
 ---------------------------------------------------------------------
 Rotational constants (GHZ):      0.0591466      0.0477943      0.0275161
 Standard basis: STO-3G (5D, 7F)
 There are   255 symmetry adapted basis functions of A   symmetry.
 Integral buffers will be    131072 words long.
 Raffenetti 2 integral format.
 Two-electron integral symmetry is turned on.
   255 basis functions,   765 primitive gaussians,   255 cartesian basis functions
   157 alpha electrons      157 beta electrons
       nuclear repulsion energy      4863.1814622311 Hartrees.
 NAtoms=   83 NActive=   83 NUniq=   83 SFac= 7.50D-01 NAtFMM=   80 NAOKFM=T Big=T
 Standard density basis: Auto (5D, 7F)
  1367 Density fitting functions
 There are  1367 symmetry adapted density basis functions of A   symmetry.
 ------------------------------------------------------------------------------
 Polarizable Continuum Model (PCM)
 =================================
 Model                : PCM.
 Atomic radii         : UFF (Universal Force Field).
 Polarization charges : Total charges.
 Charge compensation  : None.
 Solution method      : Matrix inversion.
 Cavity type          : Scaled VdW (van der Waals Surface) (Alpha=1.100).
 Cavity algorithm     : GePol (No added spheres)
                        Default sphere list used, NSphG=   83.
                        Lebedev-Laikov grids with approx.  5.0 points / Ang**2.
                        Smoothing algorithm: Karplus/York (Gamma=1.0000).
                        Polarization charges: spherical gaussians, with
                                              point-specific exponents (IZeta= 3).
                        Self-potential: point-specific (ISelfS= 7).
                        Self-field    : sphere-specific E.n sum rule (ISelfD= 2).
 1st derivatives      : Analytical E(r).r(x)/FMM algorithm (CHGder, D1EAlg=3).
                        Cavity 1st derivative terms included.
 Solvent              : Water, Eps=  78.355300 Eps(inf)=   1.777849
 ------------------------------------------------------------------------------
 One-electron integrals computed using PRISM.
 NBasis=   255 RedAO= T  NBF=   255
 NBsUse=   255 1.00D-06 NBFU=   255
 NBasis=      255 NBas6D=      255 NTT=       32640   NTT6D=    32640
 NDBShl=      335 NDBF=       1367 NDBF6D=     1496  NNucDB=        0
 IDenFi=        2 ISolve=        0 FullAP=F BlkAPC=T NucTyp=        0
 TolInv= 1.00D-05 TolIt=  1.00D-10 IR12=0.
 Petite list used in FoFDir.
 MinBra= 0 MaxBra= 2 Meth= 1.
 IRaf=       0 NMat=   1 IRICut=       1 DoRegI=T DoRafI=F ISym2E= 1 JSym2E=1.
  NDBF=  1367  NBFD=  1367
 NRank=  1367 NBFDU=  1367
 S*AI*S=  12.2635794380    
 Harris functional with IExCor= 1009 diagonalized for initial guess.
 ExpMin= 1.69D-01 ExpMax= 1.31D+02 ExpMxC= 1.31D+02 IAcc=1 IRadAn=         1 AccDes= 0.00D+00
 HarFok:  IExCor= 1009 AccDes= 0.00D+00 IRadAn=         1 IDoV= 1
 ScaDFX=  1.000000  1.000000  1.000000  1.000000
 FoFCou: FMM=F IPFlag=           0 FMFlag=      100000 FMFlg1=        2001
         NFxFlg=           0 DoJE=T BraDBF=F KetDBF=T FulRan=T
         Omega=  0.000000  0.000000  1.000000  0.000000  0.000000 ICntrl=     500 IOpCl=  0
         NMat0=    1 NMatS0=    1 NMatT0=    0 NMatD0=    1 NMtDS0=    0 NMtDT0=    0
         I1Cent=           4 NGrid=           0.
 Petite list used in FoFCou.
 Initial guess orbital symmetries:
       Occupied  (A) (A) (A) (A) (A) (A) (A) (A) (A) (A) (A) (A)
                 (A) (A) (A) (A) (A) (A) (A) (A) (A) (A) (A) (A)
                 (A) (A) (A) (A) (A) (A) (A) (A) (A) (A) (A) (A)
                 (A) (A) (A) (A) (A) (A) (A) (A) (A) (A) (A) (A)
                 (A) (A) (A) (A) (A) (A) (A) (A) (A) (A) (A) (A)
                 (A) (A) (A) (A) (A) (A) (A) (A) (A) (A) (A) (A)
                 (A) (A) (A) (A) (A) (A) (A) (A) (A) (A) (A) (A)
                 (A) (A) (A) (A) (A) (A) (A) (A) (A) (A) (A) (A)
                 (A) (A) (A) (A) (A) (A) (A) (A) (A) (A) (A) (A)
                 (A) (A) (A) (A) (A) (A) (A) (A) (A) (A) (A) (A)
                 (A) (A) (A) (A) (A) (A) (A) (A) (A) (A) (A) (A)
                 (A) (A) (A) (A) (A) (A) (A) (A) (A) (A) (A) (A)
                 (A) (A) (A) (A) (A) (A) (A) (A) (A) (A) (A) (A)
                 (A)
       Virtual   (A) (A) (A) (A) (A) (A) (A) (A) (A) (A) (A) (A)
                 (A) (A) (A) (A) (A) (A) (A) (A) (A) (A) (A) (A)
                 (A) (A) (A) (A) (A) (A) (A) (A) (A) (A) (A) (A)
                 (A) (A) (A) (A) (A) (A) (A) (A) (A) (A) (A) (A)
                 (A) (A) (A) (A) (A) (A) (A) (A) (A) (A) (A) (A)
                 (A) (A) (A) (A) (A) (A) (A) (A) (A) (A) (A) (A)
                 (A) (A) (A) (A) (A) (A) (A) (A) (A) (A) (A) (A)
                 (A) (A) (A) (A) (A) (A) (A) (A) (A) (A) (A) (A)
                 (A) (A)
 The electronic state of the initial guess is 1-A.
 Requested convergence on RMS density matrix=1.00D-08 within 128 cycles.
 Requested convergence on MAX density matrix=1.00D-06.
 Requested convergence on             energy=1.00D-06.
 No special actions if energy rises.
 FoFCou: FMM=F IPFlag=           0 FMFlag=      100000 FMFlg1=        2001
         NFxFlg=           0 DoJE=T BraDBF=T KetDBF=F FulRan=T
         Omega=  0.000000  0.000000  1.000000  0.000000  0.000000 ICntrl=     500 IOpCl=  0
         NMat0=    1 NMatS0=    1 NMatT0=    0 NMatD0=    1 NMtDS0=    0 NMtDT0=    0
         I1Cent=           5 NGrid=           0.
 Symmetry not used in FoFCou.
 EnCoef did     2 forward-backward iterations
 EnCoef did     1 forward-backward iterations
 Error on total polarization charges =  0.00682
 SCF Done:  E(RPBE-PBE) =  -1925.37999901     A.U. after   18 cycles
             Convg  =    0.8031D-08             -V/T =  2.0169

 **********************************************************************

            Population analysis using the SCF density.

 **********************************************************************

 Orbital symmetries:
       Occupied  (A) (A) (A) (A) (A) (A) (A) (A) (A) (A) (A) (A)
                 (A) (A) (A) (A) (A) (A) (A) (A) (A) (A) (A) (A)
                 (A) (A) (A) (A) (A) (A) (A) (A) (A) (A) (A) (A)
                 (A) (A) (A) (A) (A) (A) (A) (A) (A) (A) (A) (A)
                 (A) (A) (A) (A) (A) (A) (A) (A) (A) (A) (A) (A)
                 (A) (A) (A) (A) (A) (A) (A) (A) (A) (A) (A) (A)
                 (A) (A) (A) (A) (A) (A) (A) (A) (A) (A) (A) (A)
                 (A) (A) (A) (A) (A) (A) (A) (A) (A) (A) (A) (A)
                 (A) (A) (A) (A) (A) (A) (A) (A) (A) (A) (A) (A)
                 (A) (A) (A) (A) (A) (A) (A) (A) (A) (A) (A) (A)
                 (A) (A) (A) (A) (A) (A) (A) (A) (A) (A) (A) (A)
                 (A) (A) (A) (A) (A) (A) (A) (A) (A) (A) (A) (A)
                 (A) (A) (A) (A) (A) (A) (A) (A) (A) (A) (A) (A)
                 (A)
       Virtual   (A) (A) (A) (A) (A) (A) (A) (A) (A) (A) (A) (A)
                 (A) (A) (A) (A) (A) (A) (A) (A) (A) (A) (A) (A)
                 (A) (A) (A) (A) (A) (A) (A) (A) (A) (A) (A) (A)
                 (A) (A) (A) (A) (A) (A) (A) (A) (A) (A) (A) (A)
                 (A) (A) (A) (A) (A) (A) (A) (A) (A) (A) (A) (A)
                 (A) (A) (A) (A) (A) (A) (A) (A) (A) (A) (A) (A)
                 (A) (A) (A) (A) (A) (A) (A) (A) (A) (A) (A) (A)
                 (A) (A) (A) (A) (A) (A) (A) (A) (A) (A) (A) (A)
                 (A) (A)
 The electronic state is 1-A.
 Alpha  occ. eigenvalues --  -18.59662 -18.52779 -18.51524 -18.49328 -18.48068
 Alpha  occ. eigenvalues --  -18.46081 -13.85845 -13.84025 -13.79302 -13.79259
 Alpha  occ. eigenvalues --   -9.81853  -9.79189  -9.78055  -9.77187  -9.75297
 Alpha  occ. eigenvalues --   -9.75094  -9.74258  -9.73579  -9.73284  -9.73260
 Alpha  occ. eigenvalues --   -9.73191  -9.73158  -9.72332  -9.72022  -9.71973
 Alpha  occ. eigenvalues --   -9.71848  -9.71712  -9.71472  -9.71394  -9.71332
 Alpha  occ. eigenvalues --   -9.71294  -9.71100  -9.70960  -9.70369  -9.70260
 Alpha  occ. eigenvalues --   -9.70180  -9.69997  -9.69639  -9.69221  -9.69216
 Alpha  occ. eigenvalues --   -9.69080  -9.69038  -9.68859  -0.93975  -0.89216
 Alpha  occ. eigenvalues --   -0.88159  -0.86852  -0.86741  -0.81593  -0.80762
 Alpha  occ. eigenvalues --   -0.80007  -0.79477  -0.78661  -0.68922  -0.68333
 Alpha  occ. eigenvalues --   -0.68254  -0.66973  -0.66677  -0.65029  -0.64384
 Alpha  occ. eigenvalues --   -0.63979  -0.63342  -0.62711  -0.61850  -0.59415
 Alpha  occ. eigenvalues --   -0.58682  -0.58208  -0.57636  -0.54964  -0.54598
 Alpha  occ. eigenvalues --   -0.53580  -0.52986  -0.52136  -0.51386  -0.49419
 Alpha  occ. eigenvalues --   -0.47638  -0.47391  -0.46612  -0.46246  -0.45240
 Alpha  occ. eigenvalues --   -0.44755  -0.43705  -0.42976  -0.42294  -0.41156
 Alpha  occ. eigenvalues --   -0.40643  -0.38873  -0.38223  -0.37564  -0.37043
 Alpha  occ. eigenvalues --   -0.36105  -0.35810  -0.35787  -0.35113  -0.34769
 Alpha  occ. eigenvalues --   -0.34428  -0.34250  -0.34163  -0.33654  -0.33188
 Alpha  occ. eigenvalues --   -0.32897  -0.32813  -0.32716  -0.32658  -0.32108
 Alpha  occ. eigenvalues --   -0.31969  -0.31569  -0.31077  -0.30772  -0.30639
 Alpha  occ. eigenvalues --   -0.30374  -0.30039  -0.29481  -0.29320  -0.29011
 Alpha  occ. eigenvalues --   -0.28957  -0.28828  -0.28558  -0.28391  -0.28000
 Alpha  occ. eigenvalues --   -0.27884  -0.27587  -0.27046  -0.26793  -0.26504
 Alpha  occ. eigenvalues --   -0.26275  -0.26124  -0.25892  -0.25634  -0.25412
 Alpha  occ. eigenvalues --   -0.25287  -0.25182  -0.24855  -0.24623  -0.24474
 Alpha  occ. eigenvalues --   -0.24189  -0.23994  -0.23539  -0.23159  -0.22359
 Alpha  occ. eigenvalues --   -0.21345  -0.19645  -0.19465  -0.17287  -0.15892
 Alpha  occ. eigenvalues --   -0.15061  -0.14118  -0.13353  -0.12557  -0.12007
 Alpha  occ. eigenvalues --   -0.11310  -0.11162  -0.09940  -0.09719  -0.08853
 Alpha  occ. eigenvalues --   -0.07550  -0.06952
 Alpha virt. eigenvalues --   -0.01908   0.01687   0.04027   0.05404   0.08620
 Alpha virt. eigenvalues --    0.09174   0.10763   0.13084   0.14064   0.16276
 Alpha virt. eigenvalues --    0.18024   0.19335   0.19621   0.24475   0.24905
 Alpha virt. eigenvalues --    0.25445   0.25682   0.27237   0.27604   0.28094
 Alpha virt. eigenvalues --    0.28411   0.29610   0.30159   0.30426   0.30964
 Alpha virt. eigenvalues --    0.31180   0.31611   0.32439   0.33006   0.33287
 Alpha virt. eigenvalues --    0.33981   0.34509   0.34901   0.35271   0.35357
 Alpha virt. eigenvalues --    0.35600   0.35681   0.35935   0.36226   0.36448
 Alpha virt. eigenvalues --    0.36623   0.37038   0.37313   0.37810   0.37872
 Alpha virt. eigenvalues --    0.37988   0.38441   0.38487   0.38886   0.38974
 Alpha virt. eigenvalues --    0.39718   0.40064   0.40809   0.41153   0.41472
 Alpha virt. eigenvalues --    0.41623   0.42041   0.42234   0.42437   0.42720
 Alpha virt. eigenvalues --    0.42876   0.43024   0.43695   0.43944   0.44039
 Alpha virt. eigenvalues --    0.44224   0.44403   0.44641   0.44736   0.44955
 Alpha virt. eigenvalues --    0.45139   0.45483   0.45766   0.46499   0.46776
 Alpha virt. eigenvalues --    0.46963   0.47467   0.48282   0.48863   0.49114
 Alpha virt. eigenvalues --    0.50735   0.52098   0.53146   0.54550   0.55405
 Alpha virt. eigenvalues --    0.56061   0.57350   0.58636   0.59703   0.61145
 Alpha virt. eigenvalues --    0.61878   0.63208   0.66184   0.67373   0.68249
 Alpha virt. eigenvalues --    0.70611   0.72122   0.74173
          Condensed to atoms (all electrons):
 Mulliken atomic charges:
              1
     1  C   -0.108971
     2  N   -0.257487
     3  C    0.028673
     4  C   -0.029905
     5  C   -0.037286
     6  C    0.045289
     7  C   -0.247602
     8  C   -0.153834
     9  C   -0.162771
    10  C    0.157491
    11  O   -0.226060
    12  O   -0.229528
    13  C   -0.114813
    14  N   -0.272975
    15  C    0.060098
    16  C   -0.011040
    17  C   -0.028795
    18  C    0.162975
    19  C   -0.244290
    20  C   -0.149181
    21  C   -0.237115
    22  O   -0.199451
    23  N   -0.262785
    24  C    0.185298
    25  C   -0.076068
    26  C   -0.064671
    27  C    0.074177
    28  C   -0.235330
    29  C   -0.139631
    30  C   -0.237502
    31  O   -0.195150
    32  C   -0.133030
    33  N   -0.257483
    34  C    0.049328
    35  C   -0.038515
    36  C   -0.030738
    37  C    0.025198
    38  C   -0.248031
    39  C   -0.149758
    40  C   -0.161201
    41  C    0.192546
    42  O   -0.172872
    43  O   -0.190031
    44  H    0.120296
    45  H    0.091941
    46  H    0.083791
    47  H    0.091219
    48  H    0.093619
    49  H    0.087130
    50  H    0.091567
    51  H    0.091726
    52  H    0.206733
    53  H    0.096792
    54  H    0.230593
    55  H    0.094325
    56  H    0.095816
    57  H    0.096033
    58  H    0.086171
    59  H    0.089171
    60  H    0.080684
    61  H    0.087288
    62  H    0.079691
    63  H    0.237213
    64  H    0.094100
    65  H    0.093703
    66  H    0.086760
    67  H    0.084626
    68  H    0.086793
    69  H    0.080895
    70  H    0.082804
    71  H    0.082809
    72  H    0.080719
    73  H    0.080635
    74  H    0.091102
    75  H    0.237781
    76  H    0.084322
    77  H    0.091532
    78  H    0.091547
    79  H    0.093627
    80  H    0.093364
    81  H    0.104127
    82  H    0.106009
    83  H    0.243772
 Sum of Mulliken atomic charges =   0.00000
 Mulliken charges with hydrogens summed into heavy atoms:
              1
     1  C    0.011326
     2  N   -0.019706
     3  C    0.028673
     4  C   -0.029905
     5  C   -0.037286
     6  C    0.045289
     7  C    0.019349
     8  C    0.026916
     9  C    0.020521
    10  C    0.157491
    11  O   -0.226060
    12  O   -0.022795
    13  C   -0.018021
    14  N   -0.042382
    15  C    0.060098
    16  C   -0.011040
    17  C   -0.028795
    18  C    0.162975
    19  C    0.041885
    20  C    0.026161
    21  C    0.010548
    22  O   -0.199451
    23  N   -0.025573
    24  C    0.185298
    25  C    0.018032
    26  C    0.029033
    27  C    0.074177
    28  C    0.022848
    29  C    0.024068
    30  C    0.006661
    31  O   -0.195150
    32  C   -0.041928
    33  N   -0.257483
    34  C    0.049328
    35  C   -0.038515
    36  C   -0.030738
    37  C    0.025198
    38  C    0.019370
    39  C    0.037232
    40  C    0.048935
    41  C    0.192546
    42  O   -0.172872
    43  O    0.053742
 Sum of Mulliken charges with hydrogens summed into heavy atoms =   0.00000
 Electronic spatial extent (au):  <R**2>=          36895.8917
 Charge=              0.0000 electrons
 Dipole moment (field-independent basis, Debye):
    X=             -4.1253    Y=              1.1594    Z=             -0.4378  Tot=              4.3074
 Quadrupole moment (field-independent basis, Debye-Ang):
   XX=           -250.5865   YY=           -204.4210   ZZ=           -237.9266
   XY=             21.3112   XZ=             -9.7124   YZ=              9.5190
 Traceless Quadrupole moment (field-independent basis, Debye-Ang):
   XX=            -19.6085   YY=             26.5571   ZZ=             -6.9486
   XY=             21.3112   XZ=             -9.7124   YZ=              9.5190
 Octapole moment (field-independent basis, Debye-Ang**2):
  XXX=           -239.6568  YYY=            -62.7344  ZZZ=             -0.5876  XYY=             -4.5346
  XXY=            -75.6585  XXZ=             13.6326  XZZ=            -14.6385  YZZ=             -4.9066
  YYZ=            -10.4276  XYZ=            -20.0327
 Hexadecapole moment (field-independent basis, Debye-Ang**3):
 XXXX=         -26957.5688 YYYY=         -18447.6505 ZZZZ=          -1128.9867 XXXY=           1134.5425
 XXXZ=           -596.0885 YYYX=            662.5703 YYYZ=            353.3362 ZZZX=             87.0942
 ZZZY=            -17.2419 XXYY=          -7133.1171 XXZZ=          -4289.8043 YYZZ=          -3558.5881
 XXYZ=             57.7577 YYXZ=           -197.1784 ZZXY=             54.5098
 N-N= 4.863181462231D+03 E-N=-1.421165075011D+04  KE= 1.893408142503D+03
 D1PCM: PCM CHGder 1st derivatives, ID1Alg=3 FixD1E=F DoIter=F DoCFld=F I1PDM=0.
 Calling FoFJK, ICntrl=      2527 FMM=T ISym2X=0 I1Cent= 4 IOpClX= 0 NMat=1 NMatS=1 NMatT=0.
 ***** Axes restored to original set *****
 -------------------------------------------------------------------
 Center     Atomic                   Forces (Hartrees/Bohr)
 Number     Number              X              Y              Z
 -------------------------------------------------------------------
      1        6          -0.001879901    0.001232752    0.000411086
      2        7          -0.000746491   -0.000247986    0.000002563
      3        6           0.001458022   -0.000140844   -0.000227616
      4        6          -0.001246073    0.000310373    0.000177854
      5        6           0.000649396    0.001175983   -0.000058836
      6        6           0.001505102   -0.000897994   -0.000143547
      7        6           0.000170946   -0.000098437    0.000004335
      8        6           0.000055817   -0.000226757    0.000093280
      9        6           0.000213743   -0.000129507    0.000309978
     10        6          -0.002156915    0.001712344   -0.003185468
     11        8           0.000780886   -0.000405058    0.001293873
     12        8           0.002905829   -0.000089435    0.002037763
     13        6          -0.000016024   -0.000154704    0.000031984
     14        7           0.001024722   -0.000223505    0.000120370
     15        6           0.000447552    0.000113992    0.000141201
     16        6          -0.000573278    0.000634231   -0.000286281
     17        6           0.000636071   -0.000433989    0.000238817
     18        6          -0.002506047    0.000425841   -0.000706361
     19        6           0.000202653    0.000087832   -0.000017576
     20        6          -0.000068530    0.000111002    0.000045262
     21        6          -0.000088044   -0.000026827    0.000044811
     22        8           0.000769255   -0.000429459    0.000336709
     23        7           0.001180934   -0.000601337    0.000268529
     24        6           0.001812514    0.000188583    0.001021057
     25        6          -0.000279999    0.000031354   -0.000186708
     26        6           0.000165655    0.000369941    0.000057162
     27        6          -0.002597955    0.002153746   -0.000918337
     28        6           0.000053758   -0.000070642   -0.000367234
     29        6          -0.000081691   -0.000071017    0.000405965
     30        6           0.000071673    0.000094672   -0.000214438
     31        8          -0.000422379   -0.000103068   -0.000180229
     32        6           0.000652019   -0.002104435    0.000357726
     33        7           0.001563592    0.000442935   -0.000152684
     34        6           0.000468890    0.001766936   -0.000161688
     35        6          -0.000667980   -0.000849735    0.000175266
     36        6          -0.001077875    0.000211747    0.000411642
     37        6           0.001222029   -0.001901897   -0.000400610
     38        6          -0.000275060    0.000233069    0.000136526
     39        6          -0.000733263   -0.000630955   -0.000306537
     40        6           0.000166370    0.000802270   -0.000196539
     41        6           0.001967516   -0.002762693    0.002136421
     42        8          -0.000196073    0.001148036   -0.000496764
     43        8           0.000014161    0.000534921   -0.001412377
     44        1          -0.000398050   -0.001069779   -0.000026309
     45        1           0.000016458   -0.000074914    0.000046199
     46        1          -0.000157682    0.000191904   -0.000089021
     47        1          -0.000016412   -0.000092499   -0.000046798
     48        1          -0.000079689   -0.000130126    0.000076162
     49        1           0.000013060   -0.000083479    0.000040804
     50        1           0.000232896    0.000067402   -0.000223293
     51        1           0.000250075   -0.000005042    0.000048885
     52        1          -0.004407214   -0.000502611    0.000149468
     53        1           0.000083674    0.000412360   -0.000015491
     54        1           0.000155618   -0.000509716    0.000330700
     55        1           0.000036409    0.000048548   -0.000004891
     56        1          -0.000090431    0.000003818    0.000049892
     57        1          -0.000100965   -0.000057723   -0.000036079
     58        1           0.000051633   -0.000024944    0.000031697
     59        1           0.000009776    0.000152047    0.000030410
     60        1           0.000013687    0.000027590    0.000018811
     61        1           0.000115178    0.000068281   -0.000128853
     62        1           0.000058336   -0.000010046   -0.000104024
     63        1          -0.000677608   -0.000381217   -0.000347545
     64        1          -0.000050688   -0.000049440    0.000177069
     65        1           0.000017867   -0.000116048   -0.000083018
     66        1          -0.000111405   -0.000091060    0.000155117
     67        1           0.000094717   -0.000102429    0.000016274
     68        1           0.000037593    0.000216187    0.000074636
     69        1          -0.000196949    0.000110815   -0.000048277
     70        1           0.000225958    0.000013094   -0.000146557
     71        1          -0.000067736   -0.000151586    0.000127855
     72        1          -0.000002416   -0.000107479   -0.000120511
     73        1          -0.000113011   -0.000065932   -0.000036648
     74        1           0.000113182    0.000292795   -0.000154646
     75        1          -0.000738366    0.000318137    0.000174755
     76        1           0.000400195   -0.000154364    0.000038800
     77        1           0.000033305   -0.000210634   -0.000076095
     78        1           0.000018529    0.000090876   -0.000044454
     79        1          -0.000013382   -0.000031789   -0.000034454
     80        1           0.000098329    0.000067796    0.000002704
     81        1           0.000059933    0.000246737    0.000074474
     82        1          -0.000370237   -0.000329674   -0.000178947
     83        1           0.000910305    0.000841863   -0.000359153
 -------------------------------------------------------------------
 Cartesian Forces:  Max     0.004407214 RMS     0.000762075

 GradGradGradGradGradGradGradGradGradGradGradGradGradGradGradGradGradGrad
 Berny optimization.
 Internal  Forces:  Max     0.002254106 RMS     0.000391411
 Search for a local minimum.
 Step number   1 out of a maximum of  498
 All quantities printed in internal units (Hartrees-Bohrs-Radians)
 Mixed Optimization -- En-DIIS/RFO-DIIS
 Second derivative matrix not updated -- first step.
     Eigenvalues ---    0.00230   0.00230   0.00230   0.00230   0.00230
     Eigenvalues ---    0.00230   0.00258   0.00324   0.00335   0.00369
     Eigenvalues ---    0.00375   0.00394   0.00398   0.00405   0.00430
     Eigenvalues ---    0.00439   0.00470   0.00584   0.00756   0.00792
     Eigenvalues ---    0.00867   0.00902   0.00922   0.01018   0.01032
     Eigenvalues ---    0.01039   0.01069   0.01124   0.01142   0.01157
     Eigenvalues ---    0.01192   0.01237   0.01241   0.01288   0.01307
     Eigenvalues ---    0.01321   0.01338   0.01347   0.01408   0.01460
     Eigenvalues ---    0.01494   0.01531   0.01568   0.01643   0.01677
     Eigenvalues ---    0.01712   0.01752   0.01761   0.01797   0.01803
     Eigenvalues ---    0.02194   0.02405   0.03455   0.03561   0.03777
     Eigenvalues ---    0.03936   0.04019   0.04033   0.04374   0.04536
     Eigenvalues ---    0.04733   0.04757   0.05060   0.05242   0.05266
     Eigenvalues ---    0.05340   0.05442   0.05505   0.05513   0.05518
     Eigenvalues ---    0.05540   0.05572   0.05657   0.05700   0.05847
     Eigenvalues ---    0.06378   0.06830   0.06845   0.07068   0.07072
     Eigenvalues ---    0.07088   0.07094   0.08232   0.08878   0.09137
     Eigenvalues ---    0.09138   0.09251   0.09580   0.09905   0.11830
     Eigenvalues ---    0.11965   0.12145   0.12714   0.12749   0.12965
     Eigenvalues ---    0.13050   0.13683   0.15057   0.15385   0.15607
     Eigenvalues ---    0.15978   0.15986   0.16000   0.16000   0.16000
     Eigenvalues ---    0.16000   0.16000   0.16000   0.16000   0.16000
     Eigenvalues ---    0.16000   0.16000   0.16000   0.16000   0.16000
     Eigenvalues ---    0.16000   0.16000   0.16000   0.16000   0.16000
     Eigenvalues ---    0.16000   0.16004   0.16046   0.18243   0.19192
     Eigenvalues ---    0.19462   0.20589   0.20678   0.21931   0.21938
     Eigenvalues ---    0.21973   0.21998   0.22007   0.22010   0.22223
     Eigenvalues ---    0.22936   0.23111   0.23593   0.23736   0.23745
     Eigenvalues ---    0.24177   0.24726   0.24756   0.24833   0.24923
     Eigenvalues ---    0.24933   0.24943   0.24950   0.24965   0.24972
     Eigenvalues ---    0.24973   0.24984   0.24990   0.24994   0.24995
     Eigenvalues ---    0.24999   0.24999   0.24999   0.24999   0.25274
     Eigenvalues ---    0.25328   0.25561   0.25647   0.26201   0.26863
     Eigenvalues ---    0.26993   0.27019   0.27031   0.27294   0.28941
     Eigenvalues ---    0.29424   0.29425   0.29487   0.29596   0.29675
     Eigenvalues ---    0.29853   0.30191   0.32066   0.32139   0.32161
[...]
     11          8           0       -1.574497   -6.032112    1.822487
     12          8           0       -1.786654   -4.973229   -0.283000
     13          6           0        3.233308    0.026047   -0.401123
     14          7           0        5.536967   -0.857742    0.233960
     15          6           0        4.599190    0.135844   -0.154521
     16          6           0        5.354079    1.424380   -0.234168
     17          6           0        6.661187    1.201532    0.138147
     18          6           0        6.853947   -0.262125    0.509516
     19          6           0        4.717794    2.737061   -0.680400
     20          6           0        7.815781    2.201617    0.208535
     21          6           0        9.026223    1.760706   -0.672329
     22          8           0        7.864076   -0.895674    0.948612
     23          7           0       -3.801679    3.851977   -0.415144
     24          6           0       -4.212477    5.224743   -0.693214
     25          6           0       -3.005890    6.130046   -0.230190
     26          6           0       -1.882063    5.142625    0.260808
     27          6           0       -2.484707    3.719890    0.084422
     28          6           0       -2.548757    7.067052   -1.387706
     29          6           0       -1.438873    5.409633    1.740566
     30          6           0       -0.709404    6.771592    1.906168
     31          8           0       -5.320163    5.551256   -1.198230
     32          6           0       -1.778448    2.564676    0.344386
     33          7           0       -1.206127    0.183513    0.036902
     34          6           0       -2.184055    1.156798    0.257101
     35          6           0       -3.479500    0.479052    0.436494
     36          6           0       -3.268307   -0.903427    0.296690
     37          6           0       -1.847748   -1.092611    0.029003
     38          6           0       -4.802882    1.130153    0.834581
     39          6           0       -4.271989   -2.038998    0.507602
     40          6           0       -4.558560   -2.857437   -0.805494
     41          6           0       -5.162521   -4.258818   -0.489855
     42          8           0       -6.257157   -4.770741   -0.833280
     43          8           0       -4.236938   -4.999985    0.376729
     44          1           0       -1.531843   -3.329142   -0.250719
     45          1           0        4.572499   -2.631487   -1.433732
     46          1           0        4.383941   -3.609745    0.060791
     47          1           0        3.701865   -4.195334   -1.476571
     48          1           0        0.177591   -4.794974   -1.528921
     49          1           0        1.883966   -5.192490   -1.164793
     50          1           0        0.866277   -6.521289    0.443176
     51          1           0        1.007452   -5.047308    1.430471
     52          1           0       -2.817718   -5.057312    0.027526
     53          1           0        2.718691    0.989487   -0.566732
     54          1           0        5.249776   -1.807894    0.575250
     55          1           0        5.465174    3.552086   -0.686540
     56          1           0        4.293311    2.644623   -1.700781
     57          1           0        3.891742    3.028107    0.000427
     58          1           0        7.465296    3.206517   -0.105746
     59          1           0        8.160090    2.287974    1.263977
     60          1           0        9.854125    2.489304   -0.576593
     61          1           0        9.388817    0.767134   -0.347071
     62          1           0        8.735469    1.698493   -1.737897
     63          1           0       -4.384181    3.022983   -0.695586
     64          1           0       -3.362820    6.756838    0.619117
     65          1           0       -0.986169    5.233633   -0.395602
     66          1           0       -1.760065    7.757395   -1.032458
     67          1           0       -2.145045    6.478396   -2.232977
     68          1           0       -3.404063    7.668119   -1.753100
     69          1           0       -2.331673    5.377869    2.399475
     70          1           0       -0.761390    4.590036    2.060806
     71          1           0       -0.380617    6.902759    2.954835
     72          1           0        0.182580    6.817912    1.253011
     73          1           0       -1.375690    7.615265    1.645819
     74          1           0       -0.713890    2.715898    0.596262
     75          1           0        0.038993   -0.027801   -0.122164
     76          1           0       -5.428640    1.384344   -0.048404
     77          1           0       -5.400023    0.437453    1.458828
     78          1           0       -4.637293    2.056272    1.418133
     79          1           0       -3.866172   -2.744702    1.266391
     80          1           0       -5.229293   -1.641648    0.903107
     81          1           0       -5.270457   -2.316823   -1.461093
     82          1           0       -3.613406   -3.005678   -1.371193
     83          1           0       -4.681028   -5.927348    0.468301
 ---------------------------------------------------------------------
 Rotational constants (GHZ):      0.0590005      0.0481879      0.0275901

 **********************************************************************

            Population analysis using the SCF density.

 **********************************************************************

 Orbital symmetries:
       Occupied  (A) (A) (A) (A) (A) (A) (A) (A) (A) (A) (A) (A)
                 (A) (A) (A) (A) (A) (A) (A) (A) (A) (A) (A) (A)
                 (A) (A) (A) (A) (A) (A) (A) (A) (A) (A) (A) (A)
                 (A) (A) (A) (A) (A) (A) (A) (A) (A) (A) (A) (A)
                 (A) (A) (A) (A) (A) (A) (A) (A) (A) (A) (A) (A)
                 (A) (A) (A) (A) (A) (A) (A) (A) (A) (A) (A) (A)
                 (A) (A) (A) (A) (A) (A) (A) (A) (A) (A) (A) (A)
                 (A) (A) (A) (A) (A) (A) (A) (A) (A) (A) (A) (A)
                 (A) (A) (A) (A) (A) (A) (A) (A) (A) (A) (A) (A)
                 (A) (A) (A) (A) (A) (A) (A) (A) (A) (A) (A) (A)
                 (A) (A) (A) (A) (A) (A) (A) (A) (A) (A) (A) (A)
                 (A) (A) (A) (A) (A) (A) (A) (A) (A) (A) (A) (A)
                 (A) (A) (A) (A) (A) (A) (A) (A) (A) (A) (A) (A)
                 (A)
       Virtual   (A) (A) (A) (A) (A) (A) (A) (A) (A) (A) (A) (A)
                 (A) (A) (A) (A) (A) (A) (A) (A) (A) (A) (A) (A)
                 (A) (A) (A) (A) (A) (A) (A) (A) (A) (A) (A) (A)
                 (A) (A) (A) (A) (A) (A) (A) (A) (A) (A) (A) (A)
                 (A) (A) (A) (A) (A) (A) (A) (A) (A) (A) (A) (A)
                 (A) (A) (A) (A) (A) (A) (A) (A) (A) (A) (A) (A)
                 (A) (A) (A) (A) (A) (A) (A) (A) (A) (A) (A) (A)
                 (A) (A) (A) (A) (A) (A) (A) (A) (A) (A) (A) (A)
                 (A) (A)
 The electronic state is 1-A.
 Alpha  occ. eigenvalues --  -18.60149 -18.52984 -18.51325 -18.49360 -18.47847
 Alpha  occ. eigenvalues --  -18.45803 -13.85979 -13.83938 -13.79346 -13.79095
 Alpha  occ. eigenvalues --   -9.82064  -9.79229  -9.77913  -9.77045  -9.75374
 Alpha  occ. eigenvalues --   -9.75002  -9.74319  -9.73597  -9.73359  -9.73337
 Alpha  occ. eigenvalues --   -9.73212  -9.73088  -9.72376  -9.71975  -9.71947
 Alpha  occ. eigenvalues --   -9.71729  -9.71716  -9.71542  -9.71445  -9.71324
 Alpha  occ. eigenvalues --   -9.71324  -9.71026  -9.70997  -9.70311  -9.70303
 Alpha  occ. eigenvalues --   -9.70273  -9.70124  -9.69577  -9.69303  -9.69249
 Alpha  occ. eigenvalues --   -9.69182  -9.68979  -9.68777  -0.94287  -0.89086
 Alpha  occ. eigenvalues --   -0.88192  -0.87002  -0.86712  -0.81442  -0.80711
 Alpha  occ. eigenvalues --   -0.80076  -0.79394  -0.78597  -0.68980  -0.68338
 Alpha  occ. eigenvalues --   -0.68312  -0.66900  -0.66652  -0.65029  -0.64438
 Alpha  occ. eigenvalues --   -0.64031  -0.63346  -0.62663  -0.61830  -0.59451
 Alpha  occ. eigenvalues --   -0.58691  -0.58217  -0.57628  -0.54978  -0.54651
 Alpha  occ. eigenvalues --   -0.53630  -0.52922  -0.52171  -0.51426  -0.49415
 Alpha  occ. eigenvalues --   -0.47833  -0.47483  -0.46685  -0.46311  -0.45299
 Alpha  occ. eigenvalues --   -0.44803  -0.43696  -0.42932  -0.42207  -0.41217
 Alpha  occ. eigenvalues --   -0.40586  -0.38864  -0.38284  -0.37597  -0.37124
 Alpha  occ. eigenvalues --   -0.36249  -0.35835  -0.35775  -0.35156  -0.34850
 Alpha  occ. eigenvalues --   -0.34425  -0.34189  -0.34155  -0.33672  -0.33257
 Alpha  occ. eigenvalues --   -0.32988  -0.32794  -0.32742  -0.32644  -0.32177
 Alpha  occ. eigenvalues --   -0.31973  -0.31587  -0.31126  -0.30770  -0.30662
 Alpha  occ. eigenvalues --   -0.30368  -0.30022  -0.29461  -0.29374  -0.29063
 Alpha  occ. eigenvalues --   -0.29023  -0.28808  -0.28541  -0.28403  -0.28049
 Alpha  occ. eigenvalues --   -0.27849  -0.27612  -0.27128  -0.26836  -0.26512
 Alpha  occ. eigenvalues --   -0.26348  -0.26128  -0.25981  -0.25670  -0.25403
 Alpha  occ. eigenvalues --   -0.25300  -0.24957  -0.24916  -0.24646  -0.24409
 Alpha  occ. eigenvalues --   -0.24182  -0.24041  -0.23528  -0.23203  -0.22199
 Alpha  occ. eigenvalues --   -0.21293  -0.19694  -0.19460  -0.17303  -0.15924
 Alpha  occ. eigenvalues --   -0.15025  -0.14132  -0.13405  -0.12634  -0.12056
 Alpha  occ. eigenvalues --   -0.11188  -0.11144  -0.09895  -0.09750  -0.08743
 Alpha  occ. eigenvalues --   -0.07361  -0.06875
 Alpha virt. eigenvalues --   -0.01877   0.01737   0.03888   0.05332   0.08780
 Alpha virt. eigenvalues --    0.09122   0.10766   0.13107   0.14096   0.16442
 Alpha virt. eigenvalues --    0.18179   0.19183   0.19595   0.24338   0.24986
 Alpha virt. eigenvalues --    0.25333   0.25686   0.27435   0.27583   0.28015
 Alpha virt. eigenvalues --    0.28406   0.29575   0.30138   0.30486   0.31069
 Alpha virt. eigenvalues --    0.31220   0.31621   0.32371   0.32969   0.33293
 Alpha virt. eigenvalues --    0.34061   0.34474   0.34927   0.35310   0.35369
 Alpha virt. eigenvalues --    0.35587   0.35697   0.35856   0.36183   0.36450
 Alpha virt. eigenvalues --    0.36602   0.36960   0.37436   0.37788   0.37832
 Alpha virt. eigenvalues --    0.37880   0.38405   0.38530   0.38805   0.38978
 Alpha virt. eigenvalues --    0.39674   0.40019   0.40723   0.41135   0.41342
 Alpha virt. eigenvalues --    0.41595   0.41999   0.42224   0.42370   0.42680
 Alpha virt. eigenvalues --    0.42856   0.43051   0.43638   0.43891   0.43923
 Alpha virt. eigenvalues --    0.44106   0.44364   0.44548   0.44711   0.44938
 Alpha virt. eigenvalues --    0.45093   0.45391   0.45596   0.46443   0.46839
 Alpha virt. eigenvalues --    0.47000   0.47399   0.48291   0.48927   0.49184
 Alpha virt. eigenvalues --    0.50745   0.52182   0.53155   0.54621   0.55254
 Alpha virt. eigenvalues --    0.56053   0.57580   0.58584   0.59702   0.61085
 Alpha virt. eigenvalues --    0.61943   0.63109   0.66240   0.67431   0.68296
 Alpha virt. eigenvalues --    0.70635   0.72223   0.74244
          Condensed to atoms (all electrons):
 Mulliken atomic charges:
              1
     1  C   -0.109455
     2  N   -0.258187
     3  C    0.028117
     4  C   -0.030534
     5  C   -0.037548
     6  C    0.044110
     7  C   -0.247369
     8  C   -0.153798
     9  C   -0.162661
    10  C    0.156640
    11  O   -0.227867
    12  O   -0.231112
    13  C   -0.114931
    14  N   -0.273323
    15  C    0.059187
    16  C   -0.011148
    17  C   -0.029276
    18  C    0.161492
    19  C   -0.244210
    20  C   -0.149017
    21  C   -0.234611
    22  O   -0.200920
    23  N   -0.262355
    24  C    0.185527
    25  C   -0.076124
    26  C   -0.064413
    27  C    0.074624
    28  C   -0.235193
    29  C   -0.139547
    30  C   -0.237466
    31  O   -0.194751
    32  C   -0.132905
    33  N   -0.256863
    34  C    0.049678
    35  C   -0.037554
    36  C   -0.030234
    37  C    0.025285
    38  C   -0.247879
    39  C   -0.149953
    40  C   -0.161182
    41  C    0.194387
    42  O   -0.171203
    43  O   -0.188966
    44  H    0.119703
    45  H    0.091733
    46  H    0.083471
    47  H    0.091053
    48  H    0.093042
    49  H    0.086465
    50  H    0.090786
    51  H    0.090215
    52  H    0.206491
    53  H    0.096293
    54  H    0.229839
    55  H    0.094184
    56  H    0.096021
    57  H    0.095628
    58  H    0.086385
    59  H    0.089036
    60  H    0.082199
    61  H    0.084845
    62  H    0.081117
    63  H    0.237701
    64  H    0.094383
    65  H    0.093775
    66  H    0.086925
    67  H    0.084844
    68  H    0.086905
    69  H    0.080973
    70  H    0.082849
    71  H    0.082849
    72  H    0.080777
    73  H    0.080652
    74  H    0.091052
    75  H    0.237582
    76  H    0.084031
    77  H    0.092426
    78  H    0.091779
    79  H    0.093884
    80  H    0.093506
    81  H    0.104585
    82  H    0.106502
    83  H    0.247017
 Sum of Mulliken atomic charges =   0.00000
 Mulliken charges with hydrogens summed into heavy atoms:
              1
     1  C    0.010249
     2  N   -0.258187
     3  C    0.028117
     4  C   -0.030534
     5  C   -0.037548
     6  C    0.044110
     7  C    0.018888
     8  C    0.025710
     9  C    0.018340
    10  C    0.156640
    11  O   -0.227867
    12  O   -0.024621
    13  C   -0.018638
    14  N   -0.043484
    15  C    0.059187
    16  C   -0.011148
    17  C   -0.029276
    18  C    0.161492
    19  C    0.041624
    20  C    0.026404
    21  C    0.013550
    22  O   -0.200920
    23  N   -0.024654
    24  C    0.185527
    25  C    0.018260
    26  C    0.029363
    27  C    0.074624
    28  C    0.023481
    29  C    0.024275
    30  C    0.006813
    31  O   -0.194751
    32  C   -0.041853
    33  N   -0.019281
    34  C    0.049678
    35  C   -0.037554
    36  C   -0.030234
    37  C    0.025285
    38  C    0.020357
    39  C    0.037437
    40  C    0.049905
    41  C    0.194387
    42  O   -0.171203
    43  O    0.058051
 Sum of Mulliken charges with hydrogens summed into heavy atoms =   0.00000
 Electronic spatial extent (au):  <R**2>=          36769.8443
 Charge=              0.0000 electrons
 Dipole moment (field-independent basis, Debye):
    X=             -4.4596    Y=              1.2950    Z=             -0.6235  Tot=              4.6855
 Quadrupole moment (field-independent basis, Debye-Ang):
   XX=           -246.8493   YY=           -204.6105   ZZ=           -238.4986
   XY=             24.6324   XZ=             -8.7047   YZ=              9.8821
 Traceless Quadrupole moment (field-independent basis, Debye-Ang):
   XX=            -16.8631   YY=             25.3756   ZZ=             -8.5125
   XY=             24.6324   XZ=             -8.7047   YZ=              9.8821
 Octapole moment (field-independent basis, Debye-Ang**2):
  XXX=           -255.9120  YYY=            -85.5157  ZZZ=             -2.1514  XYY=             -2.9517
  XXY=            -71.7431  XXZ=              7.5037  XZZ=            -15.0523  YZZ=              1.8554
  YYZ=            -10.6757  XYZ=            -19.7728
 Hexadecapole moment (field-independent basis, Debye-Ang**3):
 XXXX=         -26412.4887 YYYY=         -18503.7117 ZZZZ=          -1108.5622 XXXY=           1304.5841
 XXXZ=           -593.4923 YYYX=            793.2392 YYYZ=            363.3119 ZZZX=             92.0113
 ZZZY=            -11.9827 XXYY=          -7146.2909 XXZZ=          -4246.6212 YYZZ=          -3582.3222
 XXYZ=             35.3370 YYXZ=           -178.0408 ZZXY=             29.2179
 N-N= 4.865490639681D+03 E-N=-1.421633850016D+04  KE= 1.893404538818D+03
 1\1\GINC-CLODOMIRA\FOpt\RPBEPBE\STO-3G\C33H40N4O6\DIEGOA\01-Nov-2019\0
 \\# pbepbe/sto-3g opt(maxcycles=500) SCRF=PCM\\Title\\0,1\C,-1.0128980
 897,-2.319870105,-0.1924636561\N,0.9957101644,-0.8542675687,-0.2795600
 934\C,0.3913919554,-2.1365593484,-0.3411722765\C,1.4224587443,-3.14593
 3716,-0.5369926608\C,2.6549359426,-2.4681254604,-0.5660084658\C,2.3856
 13479,-1.029945515,-0.3908953601\C,4.0071073567,-3.1219753117,-0.84286
 42346\C,1.1688583173,-4.6427791845,-0.745248163\C,0.7353364722,-5.4365
 127509,0.5435943518\C,-0.8190199729,-5.5572914187,0.805701767\O,-1.339
 2262954,-6.0841585585,1.8342784213\O,-1.5851870633,-5.037756238,-0.273
 768508\C,3.2294334985,0.1598385299,-0.3794446419\N,5.5642174103,-0.629
 3499654,0.2664859446\C,4.5887377852,0.3250208249,-0.1274347738\C,5.291
 349242,1.6428518731,-0.2060781104\C,6.6048269509,1.4734710636,0.171941
 215\C,6.8549382879,0.01932516,0.5464630893\C,4.6044792693,2.928138874,
 -0.6570323124\C,7.7178287512,2.5194327015,0.2454332679\C,8.9487220486,
 2.1264469717,-0.6297568869\O,7.8879741407,-0.5723086035,0.9907118243\N
 ,-3.9540675408,3.6987496894,-0.4284330969\C,-4.4187586248,5.053415452,
 -0.7104020408\C,-3.2516118258,6.0073411771,-0.2439109031\C,-2.09091082
 12,5.0667871907,0.2532767582\C,-2.6349239199,3.6206378368,0.0767295069
 \C,-2.827853245,6.9603490588,-1.4010621421\C,-1.6650025318,5.353609373
 5,1.7344010549\C,-0.9917709592,6.7441331042,1.9007826664\O,-5.53660929
 16,5.3342313053,-1.220472255\C,-1.8837174942,2.4952427806,0.3414490314
 \N,-1.214520409,0.1386700682,0.0401611685\C,-2.2318261519,1.0720192001
 ,0.2547835455\C,-3.4996061816,0.3428116653,0.4299716004\C,-3.232227947
 6,-1.0302203568,0.2932702625\C,-1.8040938995,-1.1623153811,0.031702649
 6\C,-4.8498213634,0.9405582993,0.8215875896\C,-4.1901446947,-2.2050603
 146,0.5019116281\C,-4.4380057914,-3.0363018254,-0.8110198432\C,-4.9862
 40613,-4.4604525947,-0.4955877841\O,-6.0578958447,-5.0166274872,-0.842
 6588312\O,-4.0351149742,-5.162408177,0.3759739813\H,-1.3970517962,-3.3
 84680972,-0.2431056832\H,4.6790322767,-2.4429875699,-1.4022655647\H,4.
 5238921564,-3.4258866407,0.0930544944\H,3.8723870737,-4.0407535553,-1.
 4461356245\H,0.3754233576,-4.7821934646,-1.5119313605\H,2.0949212006,-
 5.1100008113,-1.1401830862\H,1.1250033242,-6.4764477932,0.4657570255\H
 ,1.2024931526,-4.9965387628,1.4512350594\H,-2.6132993564,-5.1629264595
 ,0.0326727392\H,2.6770569851,1.1014860495,-0.5487157953\H,5.3141799263
 ,-1.5898208253,0.6081357398\H,5.3183872562,3.7726488044,-0.66143325\H,
 4.188312309,2.8171655645,-1.6789897849\H,3.7645376313,3.1866023403,0.0
 199381621\H,7.3283932341,3.5089145594,-0.0719040204\H,8.0539877851,2.6
 211450101,1.3021336354\H,9.7461485165,2.8879972961,-0.5318146699\H,9.3
 497533203,1.148788855,-0.3014115205\H,8.6651419931,2.0510053473,-1.696
 4039424\H,-4.5014783583,2.8465184892,-0.7099142119\H,-3.6370644391,6.6
 204515771,0.602913014\H,-1.1966996365,5.1929191216,-0.3996094386\H,-2.
 0691382142,7.6824704038,-1.0437080842\H,-2.3972137881,6.3872366907,-2.
 2437211359\H,-3.7051891931,7.5258814729,-1.7709239666\H,-2.5585228718,
 5.2868008834,2.3897030811\H,-0.9563390391,4.5624835311,2.058735687\H,-
 0.6729017591,6.8899828474,2.9505718821\H,-0.0996775435,6.8254611993,1.
 2512052623\H,-1.6904669225,7.5598538226,1.6363452912\H,-0.82718231,2.6
 896642218,0.5974322262\H,0.0387619369,-0.0224585022,-0.1134673385\H,-5
 .4816532902,1.168008855,-0.0643596967\H,-5.4211155522,0.2252336492,1.4
 445072582\H,-4.7241567917,1.8734511248,1.4043130025\H,-3.7593399784,-2
 .8927113583,1.2634946018\H,-5.1643345051,-1.8460891615,0.8928537973\H,
 -5.1684063549,-2.5258063129,-1.4703998034\H,-3.4852999912,-3.147103667
 2,-1.3726074165\H,-4.4418040137,-6.1068021781,0.4672281512\\Version=EM
 64L-G09RevA.01\State=1-A\HF=-1925.3803262\RMSD=8.357e-09\RMSF=2.910e-0
 6\Dipole=-1.7726397,0.4379396,-0.253301\Quadrupole=-13.9064794,20.3122
 98,-6.4058186,16.9485498,-6.8189813,7.1117295\PG=C01 [X(C33H40N4O6)]\\
 @


 THE THINKER DIES, BUT HIS THOUGHTS ARE BEYOND THE 
 REACH OF DESTRUCTION.  MEN ARE MORTAL; BUT IDEAS 
 ARE IMMORTAL.
                              -- WALTER LIPPMANN
 Job cpu time:  0 days  7 hours 46 minutes 24.0 seconds.
 File lengths (MBytes):  RWF=   1157 Int=      0 D2E=      0 Chk=     32 Scr=      1
 Normal termination of Gaussian 09 at Fri Nov  1 16:08:42 2019.
