Title                                                                   
FOpt      RTD-CAM-B3LYP-FC                                            Aug-CC-pVDZ         
Number of atoms                            I                6
Info1-9                                    I   N=           9
          14          14           0           0           0         100
           2         218           1
Charge                                     I                0
Multiplicity                               I                1
Number of electrons                        I               24
Number of alpha electrons                  I               12
Number of beta electrons                   I               12
Number of basis functions                  I               96
Number of independent functions            I               96
Number of point charges in /Mol/           I                0
Number of translation vectors              I                0
Atomic numbers                             I   N=           6
           6           7           8           1           1           1
Nuclear charges                            R   N=           6
  6.00000000E+00  7.00000000E+00  8.00000000E+00  1.00000000E+00  1.00000000E+00
  1.00000000E+00
Current cartesian coordinates              R   N=          18
 -2.18441512E-01  8.91981172E-01  6.75995137E-05  2.09316200E+00 -3.34081158E-01
 -2.45214483E-04 -2.27749351E+00 -5.70415646E-01 -1.73659226E-04  2.19965237E+00
 -2.23206056E+00  3.52948710E-04  3.69613539E+00  6.87031615E-01  3.86401588E-04
 -4.28983337E-01  2.93531745E+00  2.19944675E-05
Force Field                                I                0
Int Atom Types                             I   N=           6
           0           0           0           0           0           0
MM charges                                 R   N=           6
  0.00000000E+00  0.00000000E+00  0.00000000E+00  0.00000000E+00  0.00000000E+00
  0.00000000E+00
Integer atomic weights                     I   N=           6
          12          14          16           1           1           1
Real atomic weights                        R   N=           6
  1.20000000E+01  1.40030740E+01  1.59949146E+01  1.00782504E+00  1.00782504E+00
  1.00782504E+00
Atom fragment info                         I   N=           6
           0           0           0           0           0           0
Atom residue num                           I   N=           6
           0           0           0           0           0           0
Nuclear spins                              I   N=           6
           0           2           0           1           1           1
Nuclear ZEff                               R   N=           6
 -3.60000000E+00 -4.55000000E+00 -5.60000000E+00 -1.00000000E+00 -1.00000000E+00
 -1.00000000E+00
Nuclear QMom                               R   N=           6
  0.00000000E+00  2.04400000E+00  0.00000000E+00  0.00000000E+00  0.00000000E+00
  0.00000000E+00
Nuclear GFac                               R   N=           6
  0.00000000E+00  4.03761000E-01  0.00000000E+00  2.79284600E+00  2.79284600E+00
  2.79284600E+00
MicOpt                                     I   N=           6
          -1          -1          -1          -1          -1          -1
Number of contracted shells                I               42
Number of primitive shells                 I               90
Pure/Cartesian d shells                    I                0
Pure/Cartesian f shells                    I                0
Highest angular momentum                   I                2
Largest degree of contraction              I                7
Shell types                                I   N=          42
           0           0           0           0           1           1
           1          -2          -2           0           0           0
           0           1           1           1          -2          -2
           0           0           0           0           1           1
           1          -2          -2           0           0           0
           1           1           0           0           0           1
           1           0           0           0           1           1
Number of primitives per shell             I   N=          42
           7           7           1           1           3           1
           1           1           1           7           7           1
           1           3           1           1           1           1
           7           7           1           1           3           1
           1           1           1           3           1           1
           1           1           3           1           1           1
           1           3           1           1           1           1
Shell to atom map                          I   N=          42
           1           1           1           1           1           1
           1           1           1           2           2           2
           2           2           2           2           2           2
           3           3           3           3           3           3
           3           3           3           4           4           4
           4           4           5           5           5           5
           5           6           6           6           6           6
Primitive exponents                        R   N=          90
  6.66500000E+03  1.00000000E+03  2.28000000E+02  6.47100000E+01  2.10600000E+01
  7.49500000E+00  2.79700000E+00  6.66500000E+03  2.28000000E+02  6.47100000E+01
  2.10600000E+01  7.49500000E+00  2.79700000E+00  5.21500000E-01  1.59600000E-01
  4.69000000E-02  9.43900000E+00  2.00200000E+00  5.45600000E-01  1.51700000E-01
  4.04100000E-02  5.50000000E-01  1.51000000E-01  9.04600000E+03  1.35700000E+03
  3.09300000E+02  8.77300000E+01  2.85600000E+01  1.02100000E+01  3.83800000E+00
  9.04600000E+03  3.09300000E+02  8.77300000E+01  2.85600000E+01  1.02100000E+01
  3.83800000E+00  7.46600000E-01  2.24800000E-01  6.12400000E-02  1.35500000E+01
  2.91700000E+00  7.97300000E-01  2.18500000E-01  5.61100000E-02  8.17000000E-01
  2.30000000E-01  1.17200000E+04  1.75900000E+03  4.00800000E+02  1.13700000E+02
  3.70300000E+01  1.32700000E+01  5.02500000E+00  1.17200000E+04  4.00800000E+02
  1.13700000E+02  3.70300000E+01  1.32700000E+01  5.02500000E+00  1.01300000E+00
  3.02300000E-01  7.89600000E-02  1.77000000E+01  3.85400000E+00  1.04600000E+00
  2.75300000E-01  6.85600000E-02  1.18500000E+00  3.32000000E-01  1.30100000E+01
  1.96200000E+00  4.44600000E-01  1.22000000E-01  2.97400000E-02  7.27000000E-01
  1.41000000E-01  1.30100000E+01  1.96200000E+00  4.44600000E-01  1.22000000E-01
  2.97400000E-02  7.27000000E-01  1.41000000E-01  1.30100000E+01  1.96200000E+00
  4.44600000E-01  1.22000000E-01  2.97400000E-02  7.27000000E-01  1.41000000E-01
Contraction coefficients                   R   N=          90
  6.93516317E-04  5.34150243E-03  2.71366714E-02  1.01992385E-01  2.75508636E-01
  4.51086433E-01  2.87565745E-01  7.73354740E-06  2.78072137E-04 -2.57875654E-03
 -8.95087684E-03 -1.06058855E-01 -1.31517686E-01  1.09948660E+00  1.00000000E+00
  1.00000000E+00  5.69792516E-02  3.13207212E-01  7.60376742E-01  1.00000000E+00
  1.00000000E+00  1.00000000E+00  1.00000000E+00  7.01708743E-04  5.40299880E-03
  2.74729510E-02  1.03514580E-01  2.79586579E-01  4.51317241E-01  2.80626875E-01
  7.77446797E-06  3.00742072E-04 -2.80016549E-03 -9.89708505E-03 -1.14331114E-01
 -1.18162383E-01  1.09786885E+00  1.00000000E+00  1.00000000E+00  5.89056768E-02
  3.20461107E-01  7.53042062E-01  1.00000000E+00  1.00000000E+00  1.00000000E+00
  1.00000000E+00  7.11864434E-04  5.48520199E-03  2.79099296E-02  1.05133208E-01
  2.84002490E-01  4.51673946E-01  2.73208126E-01  7.69030046E-06  3.13484579E-04
 -2.96614853E-03 -1.08753543E-02 -1.20753817E-01 -1.06275264E-01  1.09597548E+00
  1.00000000E+00  1.00000000E+00  6.26791663E-02  3.33536566E-01  7.41239642E-01
  1.00000000E+00  1.00000000E+00  1.00000000E+00  1.00000000E+00  3.34987264E-02
  2.34800801E-01  8.13682958E-01  1.00000000E+00  1.00000000E+00  1.00000000E+00
  1.00000000E+00  3.34987264E-02  2.34800801E-01  8.13682958E-01  1.00000000E+00
  1.00000000E+00  1.00000000E+00  1.00000000E+00  3.34987264E-02  2.34800801E-01
  8.13682958E-01  1.00000000E+00  1.00000000E+00  1.00000000E+00  1.00000000E+00
Coordinates of each shell                  R   N=         126
 -2.18441512E-01  8.91981172E-01  6.75995137E-05 -2.18441512E-01  8.91981172E-01
  6.75995137E-05 -2.18441512E-01  8.91981172E-01  6.75995137E-05 -2.18441512E-01
  8.91981172E-01  6.75995137E-05 -2.18441512E-01  8.91981172E-01  6.75995137E-05
 -2.18441512E-01  8.91981172E-01  6.75995137E-05 -2.18441512E-01  8.91981172E-01
  6.75995137E-05 -2.18441512E-01  8.91981172E-01  6.75995137E-05 -2.18441512E-01
  8.91981172E-01  6.75995137E-05  2.09316200E+00 -3.34081158E-01 -2.45214483E-04
  2.09316200E+00 -3.34081158E-01 -2.45214483E-04  2.09316200E+00 -3.34081158E-01
 -2.45214483E-04  2.09316200E+00 -3.34081158E-01 -2.45214483E-04  2.09316200E+00
 -3.34081158E-01 -2.45214483E-04  2.09316200E+00 -3.34081158E-01 -2.45214483E-04
  2.09316200E+00 -3.34081158E-01 -2.45214483E-04  2.09316200E+00 -3.34081158E-01
 -2.45214483E-04  2.09316200E+00 -3.34081158E-01 -2.45214483E-04 -2.27749351E+00
 -5.70415646E-01 -1.73659226E-04 -2.27749351E+00 -5.70415646E-01 -1.73659226E-04
 -2.27749351E+00 -5.70415646E-01 -1.73659226E-04 -2.27749351E+00 -5.70415646E-01
 -1.73659226E-04 -2.27749351E+00 -5.70415646E-01 -1.73659226E-04 -2.27749351E+00
 -5.70415646E-01 -1.73659226E-04 -2.27749351E+00 -5.70415646E-01 -1.73659226E-04
 -2.27749351E+00 -5.70415646E-01 -1.73659226E-04 -2.27749351E+00 -5.70415646E-01
 -1.73659226E-04  2.19965237E+00 -2.23206056E+00  3.52948710E-04  2.19965237E+00
 -2.23206056E+00  3.52948710E-04  2.19965237E+00 -2.23206056E+00  3.52948710E-04
  2.19965237E+00 -2.23206056E+00  3.52948710E-04  2.19965237E+00 -2.23206056E+00
  3.52948710E-04  3.69613539E+00  6.87031615E-01  3.86401588E-04  3.69613539E+00
  6.87031615E-01  3.86401588E-04  3.69613539E+00  6.87031615E-01  3.86401588E-04
  3.69613539E+00  6.87031615E-01  3.86401588E-04  3.69613539E+00  6.87031615E-01
  3.86401588E-04 -4.28983337E-01  2.93531745E+00  2.19944675E-05 -4.28983337E-01
  2.93531745E+00  2.19944675E-05 -4.28983337E-01  2.93531745E+00  2.19944675E-05
 -4.28983337E-01  2.93531745E+00  2.19944675E-05 -4.28983337E-01  2.93531745E+00
  2.19944675E-05
Density Number of contracted shells        I               84
Density Number of primitive shells         I               84
Density Pure/Cartesian d shells            I                0
Density Pure/Cartesian f shells            I                0
Density Highest angular momentum           I                3
Density Largest degree of contraction      I                1
Density Shell types                        I   N=          84
           0           0           0           0           0          -1
          -2          -1          -2          -1          -2          -3
          -1          -2          -3          -1          -2          -3
           0           0           0           0           0          -1
          -2          -1          -2          -1          -2          -3
          -1          -2          -3          -1          -2          -3
           0           0           0           0           0          -1
          -2          -1          -2          -1          -2          -3
          -1          -2          -3          -1          -2          -3
           0           0          -1          -2          -1          -2
          -1          -2          -1          -2           0           0
          -1          -2          -1          -2          -1          -2
          -1          -2           0           0          -1          -2
          -1          -2          -1          -2          -1          -2
Density Number of primitives per shell     I   N=          84
           1           1           1           1           1           1
           1           1           1           1           1           1
           1           1           1           1           1           1
           1           1           1           1           1           1
           1           1           1           1           1           1
           1           1           1           1           1           1
           1           1           1           1           1           1
           1           1           1           1           1           1
           1           1           1           1           1           1
           1           1           1           1           1           1
           1           1           1           1           1           1
           1           1           1           1           1           1
           1           1           1           1           1           1
           1           1           1           1           1           1
Density Shell to atom map                  I   N=          84
           1           1           1           1           1           1
           1           1           1           1           1           1
           1           1           1           1           1           1
           2           2           2           2           2           2
           2           2           2           2           2           2
           2           2           2           2           2           2
           3           3           3           3           3           3
           3           3           3           3           3           3
           3           3           3           3           3           3
           4           4           4           4           4           4
           4           4           4           4           5           5
           5           5           5           5           5           5
           5           5           6           6           6           6
           6           6           6           6           6           6
Density Primitive exponents                R   N=          84
  1.33300000E+04  2.00000000E+03  4.56000000E+02  1.29420000E+02  4.21200000E+01
  1.68220457E+01  1.68220457E+01  4.73269226E+00  4.73269226E+00  1.06897221E+00
  1.06897221E+00  1.06897221E+00  3.10840122E-01  3.10840122E-01  3.10840122E-01
  8.70684558E-02  8.70684558E-02  8.70684558E-02  1.80920000E+04  2.71400000E+03
  6.18600000E+02  1.75460000E+02  5.71200000E+01  2.35240728E+01  2.35240728E+01
  6.69191931E+00  6.69191931E+00  1.55251192E+00  1.55251192E+00  1.55251192E+00
  4.45796600E-01  4.45796600E-01  4.45796600E-01  1.17237816E-01  1.17237816E-01
  1.17237816E-01  2.34400000E+04  3.51800000E+03  8.01600000E+02  2.27400000E+02
  7.40600000E+01  3.06515252E+01  3.06515252E+01  8.80144306E+00  8.80144306E+00
  2.20889185E+00  2.20889185E+00  2.20889185E+00  5.90645853E-01  5.90645853E-01
  5.90645853E-01  1.47152949E-01  1.47152949E-01  1.47152949E-01  2.60200000E+01
  3.92400000E+00  1.45400000E+00  1.45400000E+00  8.89200000E-01  8.89200000E-01
  2.62312790E-01  2.62312790E-01  5.94800000E-02  5.94800000E-02  2.60200000E+01
  3.92400000E+00  1.45400000E+00  1.45400000E+00  8.89200000E-01  8.89200000E-01
  2.62312790E-01  2.62312790E-01  5.94800000E-02  5.94800000E-02  2.60200000E+01
  3.92400000E+00  1.45400000E+00  1.45400000E+00  8.89200000E-01  8.89200000E-01
  2.62312790E-01  2.62312790E-01  5.94800000E-02  5.94800000E-02
Density Contraction coefficients           R   N=          84
  1.00000000E+00  1.00000000E+00  1.00000000E+00  1.00000000E+00  1.00000000E+00
  1.00000000E+00  1.00000000E+00  1.00000000E+00  1.00000000E+00  1.00000000E+00
  1.00000000E+00  1.00000000E+00  1.00000000E+00  1.00000000E+00  1.00000000E+00
  1.00000000E+00  1.00000000E+00  1.00000000E+00  1.00000000E+00  1.00000000E+00
  1.00000000E+00  1.00000000E+00  1.00000000E+00  1.00000000E+00  1.00000000E+00
  1.00000000E+00  1.00000000E+00  1.00000000E+00  1.00000000E+00  1.00000000E+00
  1.00000000E+00  1.00000000E+00  1.00000000E+00  1.00000000E+00  1.00000000E+00
  1.00000000E+00  1.00000000E+00  1.00000000E+00  1.00000000E+00  1.00000000E+00
  1.00000000E+00  1.00000000E+00  1.00000000E+00  1.00000000E+00  1.00000000E+00
  1.00000000E+00  1.00000000E+00  1.00000000E+00  1.00000000E+00  1.00000000E+00
  1.00000000E+00  1.00000000E+00  1.00000000E+00  1.00000000E+00  1.00000000E+00
  1.00000000E+00  1.00000000E+00  1.00000000E+00  1.00000000E+00  1.00000000E+00
  1.00000000E+00  1.00000000E+00  1.00000000E+00  1.00000000E+00  1.00000000E+00
  1.00000000E+00  1.00000000E+00  1.00000000E+00  1.00000000E+00  1.00000000E+00
  1.00000000E+00  1.00000000E+00  1.00000000E+00  1.00000000E+00  1.00000000E+00
  1.00000000E+00  1.00000000E+00  1.00000000E+00  1.00000000E+00  1.00000000E+00
  1.00000000E+00  1.00000000E+00  1.00000000E+00  1.00000000E+00
Density P(S=P) Contraction coefficients    R   N=          84
  0.00000000E+00  0.00000000E+00  0.00000000E+00  0.00000000E+00  0.00000000E+00
  1.00000000E+00  0.00000000E+00  1.00000000E+00  0.00000000E+00  1.00000000E+00
  0.00000000E+00  0.00000000E+00  1.00000000E+00  0.00000000E+00  0.00000000E+00
  1.00000000E+00  0.00000000E+00  0.00000000E+00  0.00000000E+00  0.00000000E+00
  0.00000000E+00  0.00000000E+00  0.00000000E+00  1.00000000E+00  0.00000000E+00
  1.00000000E+00  0.00000000E+00  1.00000000E+00  0.00000000E+00  0.00000000E+00
  1.00000000E+00  0.00000000E+00  0.00000000E+00  1.00000000E+00  0.00000000E+00
  0.00000000E+00  0.00000000E+00  0.00000000E+00  0.00000000E+00  0.00000000E+00
  0.00000000E+00  1.00000000E+00  0.00000000E+00  1.00000000E+00  0.00000000E+00
  1.00000000E+00  0.00000000E+00  0.00000000E+00  1.00000000E+00  0.00000000E+00
  0.00000000E+00  1.00000000E+00  0.00000000E+00  0.00000000E+00  0.00000000E+00
  0.00000000E+00  1.00000000E+00  0.00000000E+00  1.00000000E+00  0.00000000E+00
  1.00000000E+00  0.00000000E+00  1.00000000E+00  0.00000000E+00  0.00000000E+00
  0.00000000E+00  1.00000000E+00  0.00000000E+00  1.00000000E+00  0.00000000E+00
  1.00000000E+00  0.00000000E+00  1.00000000E+00  0.00000000E+00  0.00000000E+00
  0.00000000E+00  1.00000000E+00  0.00000000E+00  1.00000000E+00  0.00000000E+00
  1.00000000E+00  0.00000000E+00  1.00000000E+00  0.00000000E+00
Density Coordinates of each shell          R   N=         252
 -2.18441512E-01  8.91981172E-01  6.75995137E-05 -2.18441512E-01  8.91981172E-01
  6.75995137E-05 -2.18441512E-01  8.91981172E-01  6.75995137E-05 -2.18441512E-01
  8.91981172E-01  6.75995137E-05 -2.18441512E-01  8.91981172E-01  6.75995137E-05
 -2.18441512E-01  8.91981172E-01  6.75995137E-05 -2.18441512E-01  8.91981172E-01
  6.75995137E-05 -2.18441512E-01  8.91981172E-01  6.75995137E-05 -2.18441512E-01
  8.91981172E-01  6.75995137E-05 -2.18441512E-01  8.91981172E-01  6.75995137E-05
 -2.18441512E-01  8.91981172E-01  6.75995137E-05 -2.18441512E-01  8.91981172E-01
  6.75995137E-05 -2.18441512E-01  8.91981172E-01  6.75995137E-05 -2.18441512E-01
  8.91981172E-01  6.75995137E-05 -2.18441512E-01  8.91981172E-01  6.75995137E-05
 -2.18441512E-01  8.91981172E-01  6.75995137E-05 -2.18441512E-01  8.91981172E-01
  6.75995137E-05 -2.18441512E-01  8.91981172E-01  6.75995137E-05  2.09316200E+00
 -3.34081158E-01 -2.45214483E-04  2.09316200E+00 -3.34081158E-01 -2.45214483E-04
  2.09316200E+00 -3.34081158E-01 -2.45214483E-04  2.09316200E+00 -3.34081158E-01
 -2.45214483E-04  2.09316200E+00 -3.34081158E-01 -2.45214483E-04  2.09316200E+00
 -3.34081158E-01 -2.45214483E-04  2.09316200E+00 -3.34081158E-01 -2.45214483E-04
  2.09316200E+00 -3.34081158E-01 -2.45214483E-04  2.09316200E+00 -3.34081158E-01
 -2.45214483E-04  2.09316200E+00 -3.34081158E-01 -2.45214483E-04  2.09316200E+00
 -3.34081158E-01 -2.45214483E-04  2.09316200E+00 -3.34081158E-01 -2.45214483E-04
  2.09316200E+00 -3.34081158E-01 -2.45214483E-04  2.09316200E+00 -3.34081158E-01
 -2.45214483E-04  2.09316200E+00 -3.34081158E-01 -2.45214483E-04  2.09316200E+00
 -3.34081158E-01 -2.45214483E-04  2.09316200E+00 -3.34081158E-01 -2.45214483E-04
  2.09316200E+00 -3.34081158E-01 -2.45214483E-04 -2.27749351E+00 -5.70415646E-01
 -1.73659226E-04 -2.27749351E+00 -5.70415646E-01 -1.73659226E-04 -2.27749351E+00
 -5.70415646E-01 -1.73659226E-04 -2.27749351E+00 -5.70415646E-01 -1.73659226E-04
 -2.27749351E+00 -5.70415646E-01 -1.73659226E-04 -2.27749351E+00 -5.70415646E-01
 -1.73659226E-04 -2.27749351E+00 -5.70415646E-01 -1.73659226E-04 -2.27749351E+00
 -5.70415646E-01 -1.73659226E-04 -2.27749351E+00 -5.70415646E-01 -1.73659226E-04
 -2.27749351E+00 -5.70415646E-01 -1.73659226E-04 -2.27749351E+00 -5.70415646E-01
 -1.73659226E-04 -2.27749351E+00 -5.70415646E-01 -1.73659226E-04 -2.27749351E+00
 -5.70415646E-01 -1.73659226E-04 -2.27749351E+00 -5.70415646E-01 -1.73659226E-04
 -2.27749351E+00 -5.70415646E-01 -1.73659226E-04 -2.27749351E+00 -5.70415646E-01
 -1.73659226E-04 -2.27749351E+00 -5.70415646E-01 -1.73659226E-04 -2.27749351E+00
 -5.70415646E-01 -1.73659226E-04  2.19965237E+00 -2.23206056E+00  3.52948710E-04
  2.19965237E+00 -2.23206056E+00  3.52948710E-04  2.19965237E+00 -2.23206056E+00
  3.52948710E-04  2.19965237E+00 -2.23206056E+00  3.52948710E-04  2.19965237E+00
 -2.23206056E+00  3.52948710E-04  2.19965237E+00 -2.23206056E+00  3.52948710E-04
  2.19965237E+00 -2.23206056E+00  3.52948710E-04  2.19965237E+00 -2.23206056E+00
  3.52948710E-04  2.19965237E+00 -2.23206056E+00  3.52948710E-04  2.19965237E+00
 -2.23206056E+00  3.52948710E-04  3.69613539E+00  6.87031615E-01  3.86401588E-04
  3.69613539E+00  6.87031615E-01  3.86401588E-04  3.69613539E+00  6.87031615E-01
  3.86401588E-04  3.69613539E+00  6.87031615E-01  3.86401588E-04  3.69613539E+00
  6.87031615E-01  3.86401588E-04  3.69613539E+00  6.87031615E-01  3.86401588E-04
  3.69613539E+00  6.87031615E-01  3.86401588E-04  3.69613539E+00  6.87031615E-01
  3.86401588E-04  3.69613539E+00  6.87031615E-01  3.86401588E-04  3.69613539E+00
  6.87031615E-01  3.86401588E-04 -4.28983337E-01  2.93531745E+00  2.19944675E-05
 -4.28983337E-01  2.93531745E+00  2.19944675E-05 -4.28983337E-01  2.93531745E+00
  2.19944675E-05 -4.28983337E-01  2.93531745E+00  2.19944675E-05 -4.28983337E-01
  2.93531745E+00  2.19944675E-05 -4.28983337E-01  2.93531745E+00  2.19944675E-05
 -4.28983337E-01  2.93531745E+00  2.19944675E-05 -4.28983337E-01  2.93531745E+00
  2.19944675E-05 -4.28983337E-01  2.93531745E+00  2.19944675E-05 -4.28983337E-01
  2.93531745E+00  2.19944675E-05
Constraint Structure                       R   N=          18
 -2.80446696E-01  7.35880143E-01 -1.51178091E-05  2.03313745E+00 -3.04100398E-01
  1.13383568E-04 -2.26580242E+00 -4.61796155E-01 -1.43619186E-04  2.23366952E+00
 -2.20464521E+00  1.73854804E-04  3.59611482E+00  7.87938319E-01  2.91017824E-04
 -2.52641266E-01  2.82449617E+00 -9.44863066E-06
Num ILSW                                   I              100
ILSW                                       I   N=         100
           0           0           0           0           2           0
           0           0           0           0       20419          -1
           5           0           0           0           0           0
           0           0           1           0           1           0
           1           1           0           0           0           0
           0           0      100000           0          -1           0
           0           0           0           0           0           0
           0           0           0           1           0           0
           0           0           1           0           0           0
           0           0           4          40           0           0
           0           0          40           0           0           0
           0           0           0           0           0           0
           0           0           0           0           0           0
           0           0           0           0           0           0
           0           0           0           0           0           0
           0           0           0           0           0           0
           0           0           0           0
Num RLSW                                   I               40
RLSW                                       R   N=          40
  1.00000000E+00  1.00000000E+00  1.00000000E+00  8.10000000E-01  1.00000000E+00
  0.00000000E+00  3.30000000E-01  1.90000000E-01  0.00000000E+00  4.60000000E-01
  0.00000000E+00  3.30000000E-01  1.90000000E-01  0.00000000E+00  4.60000000E-01
  0.00000000E+00  0.00000000E+00  1.00000000E+00  0.00000000E+00  0.00000000E+00
  0.00000000E+00  0.00000000E+00  1.00000000E+00  0.00000000E+00  0.00000000E+00
  0.00000000E+00  0.00000000E+00  1.00000000E+00  0.00000000E+00  0.00000000E+00
  0.00000000E+00  0.00000000E+00  0.00000000E+00  0.00000000E+00  0.00000000E+00
  0.00000000E+00  0.00000000E+00  0.00000000E+00  1.00000000E+00  1.00000000E+00
MxBond                                     I                3
NBond                                      I   N=           6
           3           3           1           1           1           1
IBond                                      I   N=          18
           2           3           6           1           4           5
           1           0           0           2           0           0
           2           0           0           1           0           0
RBond                                      R   N=          18
  1.41000000E+00  2.00000000E+00  1.00000000E+00  1.41000000E+00  1.00000000E+00
  1.00000000E+00  2.00000000E+00  0.00000000E+00  0.00000000E+00  1.00000000E+00
  0.00000000E+00  0.00000000E+00  1.00000000E+00  0.00000000E+00  0.00000000E+00
  1.00000000E+00  0.00000000E+00  0.00000000E+00
Virial Ratio                               R      2.008667388968217E+00
SCF Energy                                 R     -1.698454387010771E+02
CIS Energy                                 R     -1.696689986167023E+02
Total Energy                               R     -1.696689986167023E+02
Post-SCF wavefunction norm                 R      1.000000000000000E+00
RMS Force                                  R      1.784889226252000E-04
RMS Density                                R      8.927553430425866E-09
External E-field                           R   N=          35
  0.00000000E+00  0.00000000E+00  0.00000000E+00  0.00000000E+00  0.00000000E+00
  0.00000000E+00  0.00000000E+00  0.00000000E+00  0.00000000E+00  0.00000000E+00
  0.00000000E+00  0.00000000E+00  0.00000000E+00  0.00000000E+00  0.00000000E+00
  0.00000000E+00  0.00000000E+00  0.00000000E+00  0.00000000E+00  0.00000000E+00
  0.00000000E+00  0.00000000E+00  0.00000000E+00  0.00000000E+00  0.00000000E+00
  0.00000000E+00  0.00000000E+00  0.00000000E+00  0.00000000E+00  0.00000000E+00
  0.00000000E+00  0.00000000E+00  0.00000000E+00  0.00000000E+00  0.00000000E+00
IOpCl                                      I                0
IROHF                                      I                0
Alpha Orbital Energies                     R   N=          96
 -1.92061260E+01 -1.44498893E+01 -1.03947180E+01 -1.08648198E+00 -9.87393196E-01
 -7.17581150E-01 -6.27447069E-01 -5.74681093E-01 -4.82408960E-01 -4.67236317E-01
 -3.43111755E-01 -3.39005626E-01  1.64436949E-02  1.84294803E-02  3.29407856E-02
  4.33845793E-02  7.85355682E-02  8.10266131E-02  9.53952617E-02  1.29837390E-01
  1.40158378E-01  1.49025170E-01  1.60226822E-01  1.77717057E-01  2.03812595E-01
  2.07493508E-01  2.09496967E-01  2.49242683E-01  2.59371988E-01  2.78610803E-01
  2.97986418E-01  3.38317332E-01  3.53452141E-01  3.63975966E-01  3.95170592E-01
  4.40398324E-01  4.42575443E-01  4.65128133E-01  4.88419243E-01  4.95766770E-01
  5.02719541E-01  5.37307109E-01  5.48179246E-01  5.65518190E-01  5.78331973E-01
  5.90979148E-01  6.77448753E-01  6.82048500E-01  7.17738656E-01  7.42273441E-01
  7.98189516E-01  8.32660100E-01  8.64414965E-01  8.64560936E-01  9.35206540E-01
  1.03515948E+00  1.05029431E+00  1.05988070E+00  1.11082431E+00  1.16704612E+00
  1.23237473E+00  1.24840464E+00  1.28701782E+00  1.35181433E+00  1.40375221E+00
  1.44717584E+00  1.50282006E+00  1.63280270E+00  1.64800678E+00  1.69662245E+00
  1.74204977E+00  1.78827961E+00  1.79511308E+00  1.86508665E+00  1.91745330E+00
  2.02594307E+00  2.05721189E+00  2.06501761E+00  2.13339284E+00  2.15146276E+00
  2.21853864E+00  2.28148226E+00  2.42692904E+00  2.50731854E+00  2.54066295E+00
  2.57237937E+00  2.68136896E+00  2.81794668E+00  2.98699052E+00  3.15729126E+00
  3.25515096E+00  3.39829575E+00  3.44783944E+00  3.45355210E+00  3.64424854E+00
  3.67186527E+00
Alpha MO coefficients                      R   N=        9216
  1.52693360E-05  5.79975888E-04  1.64450558E-02  3.88938742E-03 -8.87385902E-04
 -6.47025788E-04 -3.09043685E-07 -1.07197588E-02 -9.90140451E-03 -1.29229309E-06
 -6.46406632E-04  3.61444492E-04 -3.62596065E-08 -6.46455339E-04 -9.91362540E-08
  8.81160627E-08 -2.44667833E-04 -1.58536540E-04 -2.65459171E-03  9.06338255E-07
  8.02335647E-07  1.50339200E-03  8.99032265E-03  2.33881112E-05  4.84733004E-05
  3.53883812E-03  4.40033031E-03  8.38973120E-05 -1.25109407E-05 -7.46276895E-08
  1.68127941E-03 -7.17101353E-04  8.76782563E-07 -1.83551164E-03  6.34375944E-04
  4.81411860E-07 -4.63533385E-05  7.97006700E-08  3.68167168E-09 -2.85134529E-04
 -3.27510661E-05  1.33918900E-03 -5.95973823E-08 -3.27615289E-07 -2.26073693E-04
  7.90783407E-04  9.96852909E-01  2.55562299E-02 -2.76890784E-02 -1.20530868E-02
  1.45806084E-03  9.80651778E-04  2.21798655E-07 -7.64782509E-03 -4.76671408E-03
 -1.04573337E-06 -2.95035288E-03 -1.71618110E-03 -1.73909203E-07  6.92891192E-05
  1.79945232E-08 -7.54545141E-09  1.15237601E-05  1.10565898E-04  3.54364769E-04
 -2.87350980E-07 -1.20527932E-07 -5.09634060E-04 -1.35625879E-03  1.72324450E-04