Title                                                                   
FOpt      RTD-CAM-B3LYP-FC                                            Aug-CC-pVDZ         
Number of atoms                            I                6
Info1-9                                    I   N=           9
          14          14           0           0           0         100
           2         218           1
Charge                                     I                0
Multiplicity                               I                1
Number of electrons                        I               24
Number of alpha electrons                  I               12
Number of beta electrons                   I               12
Number of basis functions                  I               96
Number of independent functions            I               96
Number of point charges in /Mol/           I                0
Number of translation vectors              I                0
Atomic numbers                             I   N=           6
           6           7           8           1           1           1
Nuclear charges                            R   N=           6
  6.00000000E+00  7.00000000E+00  8.00000000E+00  1.00000000E+00  1.00000000E+00
  1.00000000E+00
Current cartesian coordinates              R   N=          18
 -1.85099838E-01  6.95687821E-01  7.69102770E-05  2.03447012E+00 -3.32833354E-01
  1.80293394E-04 -2.31355903E+00 -3.49214421E-01 -2.05495959E-04  2.27652054E+00
 -2.23119393E+00  1.57403752E-04  3.58524245E+00  8.18229419E-01  2.31677466E-04
 -3.33542842E-01  2.77709734E+00 -3.07183598E-05
Force Field                                I                0
Int Atom Types                             I   N=           6
           0           0           0           0           0           0
MM charges                                 R   N=           6
  0.00000000E+00  0.00000000E+00  0.00000000E+00  0.00000000E+00  0.00000000E+00
  0.00000000E+00
Integer atomic weights                     I   N=           6
          12          14          16           1           1           1
Real atomic weights                        R   N=           6
  1.20000000E+01  1.40030740E+01  1.59949146E+01  1.00782504E+00  1.00782504E+00
  1.00782504E+00
Atom fragment info                         I   N=           6
           0           0           0           0           0           0
Atom residue num                           I   N=           6
           0           0           0           0           0           0
Nuclear spins                              I   N=           6
           0           2           0           1           1           1
Nuclear ZEff                               R   N=           6
 -3.60000000E+00 -4.55000000E+00 -5.60000000E+00 -1.00000000E+00 -1.00000000E+00
 -1.00000000E+00
Nuclear QMom                               R   N=           6
  0.00000000E+00  2.04400000E+00  0.00000000E+00  0.00000000E+00  0.00000000E+00
  0.00000000E+00
Nuclear GFac                               R   N=           6
  0.00000000E+00  4.03761000E-01  0.00000000E+00  2.79284600E+00  2.79284600E+00
  2.79284600E+00
MicOpt                                     I   N=           6
          -1          -1          -1          -1          -1          -1
Number of contracted shells                I               42
Number of primitive shells                 I               90
Pure/Cartesian d shells                    I                0
Pure/Cartesian f shells                    I                0
Highest angular momentum                   I                2
Largest degree of contraction              I                7
Shell types                                I   N=          42
           0           0           0           0           1           1
           1          -2          -2           0           0           0
           0           1           1           1          -2          -2
           0           0           0           0           1           1
           1          -2          -2           0           0           0
           1           1           0           0           0           1
           1           0           0           0           1           1
Number of primitives per shell             I   N=          42
           7           7           1           1           3           1
           1           1           1           7           7           1
           1           3           1           1           1           1
           7           7           1           1           3           1
           1           1           1           3           1           1
           1           1           3           1           1           1
           1           3           1           1           1           1
Shell to atom map                          I   N=          42
           1           1           1           1           1           1
           1           1           1           2           2           2
           2           2           2           2           2           2
           3           3           3           3           3           3
           3           3           3           4           4           4
           4           4           5           5           5           5
           5           6           6           6           6           6
Primitive exponents                        R   N=          90
  6.66500000E+03  1.00000000E+03  2.28000000E+02  6.47100000E+01  2.10600000E+01
  7.49500000E+00  2.79700000E+00  6.66500000E+03  2.28000000E+02  6.47100000E+01
  2.10600000E+01  7.49500000E+00  2.79700000E+00  5.21500000E-01  1.59600000E-01
  4.69000000E-02  9.43900000E+00  2.00200000E+00  5.45600000E-01  1.51700000E-01
  4.04100000E-02  5.50000000E-01  1.51000000E-01  9.04600000E+03  1.35700000E+03
  3.09300000E+02  8.77300000E+01  2.85600000E+01  1.02100000E+01  3.83800000E+00
  9.04600000E+03  3.09300000E+02  8.77300000E+01  2.85600000E+01  1.02100000E+01
  3.83800000E+00  7.46600000E-01  2.24800000E-01  6.12400000E-02  1.35500000E+01
  2.91700000E+00  7.97300000E-01  2.18500000E-01  5.61100000E-02  8.17000000E-01
  2.30000000E-01  1.17200000E+04  1.75900000E+03  4.00800000E+02  1.13700000E+02
  3.70300000E+01  1.32700000E+01  5.02500000E+00  1.17200000E+04  4.00800000E+02
  1.13700000E+02  3.70300000E+01  1.32700000E+01  5.02500000E+00  1.01300000E+00
  3.02300000E-01  7.89600000E-02  1.77000000E+01  3.85400000E+00  1.04600000E+00
  2.75300000E-01  6.85600000E-02  1.18500000E+00  3.32000000E-01  1.30100000E+01
  1.96200000E+00  4.44600000E-01  1.22000000E-01  2.97400000E-02  7.27000000E-01
  1.41000000E-01  1.30100000E+01  1.96200000E+00  4.44600000E-01  1.22000000E-01
  2.97400000E-02  7.27000000E-01  1.41000000E-01  1.30100000E+01  1.96200000E+00
  4.44600000E-01  1.22000000E-01  2.97400000E-02  7.27000000E-01  1.41000000E-01
Contraction coefficients                   R   N=          90
  6.93516317E-04  5.34150243E-03  2.71366714E-02  1.01992385E-01  2.75508636E-01
  4.51086433E-01  2.87565745E-01  7.73354740E-06  2.78072137E-04 -2.57875654E-03
 -8.95087684E-03 -1.06058855E-01 -1.31517686E-01  1.09948660E+00  1.00000000E+00
  1.00000000E+00  5.69792516E-02  3.13207212E-01  7.60376742E-01  1.00000000E+00
  1.00000000E+00  1.00000000E+00  1.00000000E+00  7.01708743E-04  5.40299880E-03
  2.74729510E-02  1.03514580E-01  2.79586579E-01  4.51317241E-01  2.80626875E-01
  7.77446797E-06  3.00742072E-04 -2.80016549E-03 -9.89708505E-03 -1.14331114E-01
 -1.18162383E-01  1.09786885E+00  1.00000000E+00  1.00000000E+00  5.89056768E-02
  3.20461107E-01  7.53042062E-01  1.00000000E+00  1.00000000E+00  1.00000000E+00
  1.00000000E+00  7.11864434E-04  5.48520199E-03  2.79099296E-02  1.05133208E-01
  2.84002490E-01  4.51673946E-01  2.73208126E-01  7.69030046E-06  3.13484579E-04
 -2.96614853E-03 -1.08753543E-02 -1.20753817E-01 -1.06275264E-01  1.09597548E+00
  1.00000000E+00  1.00000000E+00  6.26791663E-02  3.33536566E-01  7.41239642E-01
  1.00000000E+00  1.00000000E+00  1.00000000E+00  1.00000000E+00  3.34987264E-02
  2.34800801E-01  8.13682958E-01  1.00000000E+00  1.00000000E+00  1.00000000E+00
  1.00000000E+00  3.34987264E-02  2.34800801E-01  8.13682958E-01  1.00000000E+00
  1.00000000E+00  1.00000000E+00  1.00000000E+00  3.34987264E-02  2.34800801E-01
  8.13682958E-01  1.00000000E+00  1.00000000E+00  1.00000000E+00  1.00000000E+00
Coordinates of each shell                  R   N=         126
 -1.85099838E-01  6.95687821E-01  7.69102770E-05 -1.85099838E-01  6.95687821E-01
  7.69102770E-05 -1.85099838E-01  6.95687821E-01  7.69102770E-05 -1.85099838E-01
  6.95687821E-01  7.69102770E-05 -1.85099838E-01  6.95687821E-01  7.69102770E-05
 -1.85099838E-01  6.95687821E-01  7.69102770E-05 -1.85099838E-01  6.95687821E-01
  7.69102770E-05 -1.85099838E-01  6.95687821E-01  7.69102770E-05 -1.85099838E-01
  6.95687821E-01  7.69102770E-05  2.03447012E+00 -3.32833354E-01  1.80293394E-04
  2.03447012E+00 -3.32833354E-01  1.80293394E-04  2.03447012E+00 -3.32833354E-01
  1.80293394E-04  2.03447012E+00 -3.32833354E-01  1.80293394E-04  2.03447012E+00
 -3.32833354E-01  1.80293394E-04  2.03447012E+00 -3.32833354E-01  1.80293394E-04
  2.03447012E+00 -3.32833354E-01  1.80293394E-04  2.03447012E+00 -3.32833354E-01
  1.80293394E-04  2.03447012E+00 -3.32833354E-01  1.80293394E-04 -2.31355903E+00
 -3.49214421E-01 -2.05495959E-04 -2.31355903E+00 -3.49214421E-01 -2.05495959E-04
 -2.31355903E+00 -3.49214421E-01 -2.05495959E-04 -2.31355903E+00 -3.49214421E-01
 -2.05495959E-04 -2.31355903E+00 -3.49214421E-01 -2.05495959E-04 -2.31355903E+00
 -3.49214421E-01 -2.05495959E-04 -2.31355903E+00 -3.49214421E-01 -2.05495959E-04
 -2.31355903E+00 -3.49214421E-01 -2.05495959E-04 -2.31355903E+00 -3.49214421E-01
 -2.05495959E-04  2.27652054E+00 -2.23119393E+00  1.57403752E-04  2.27652054E+00
 -2.23119393E+00  1.57403752E-04  2.27652054E+00 -2.23119393E+00  1.57403752E-04
  2.27652054E+00 -2.23119393E+00  1.57403752E-04  2.27652054E+00 -2.23119393E+00
  1.57403752E-04  3.58524245E+00  8.18229419E-01  2.31677466E-04  3.58524245E+00
  8.18229419E-01  2.31677466E-04  3.58524245E+00  8.18229419E-01  2.31677466E-04
  3.58524245E+00  8.18229419E-01  2.31677466E-04  3.58524245E+00  8.18229419E-01
  2.31677466E-04 -3.33542842E-01  2.77709734E+00 -3.07183598E-05 -3.33542842E-01
  2.77709734E+00 -3.07183598E-05 -3.33542842E-01  2.77709734E+00 -3.07183598E-05
 -3.33542842E-01  2.77709734E+00 -3.07183598E-05 -3.33542842E-01  2.77709734E+00
 -3.07183598E-05
Density Number of contracted shells        I               84
Density Number of primitive shells         I               84
Density Pure/Cartesian d shells            I                0
Density Pure/Cartesian f shells            I                0
Density Highest angular momentum           I                3
Density Largest degree of contraction      I                1
Density Shell types                        I   N=          84
           0           0           0           0           0          -1
          -2          -1          -2          -1          -2          -3
          -1          -2          -3          -1          -2          -3
           0           0           0           0           0          -1
          -2          -1          -2          -1          -2          -3
          -1          -2          -3          -1          -2          -3
           0           0           0           0           0          -1
          -2          -1          -2          -1          -2          -3
          -1          -2          -3          -1          -2          -3
           0           0          -1          -2          -1          -2
          -1          -2          -1          -2           0           0
          -1          -2          -1          -2          -1          -2
          -1          -2           0           0          -1          -2
          -1          -2          -1          -2          -1          -2
Density Number of primitives per shell     I   N=          84
           1           1           1           1           1           1
           1           1           1           1           1           1
           1           1           1           1           1           1
           1           1           1           1           1           1
           1           1           1           1           1           1
           1           1           1           1           1           1
           1           1           1           1           1           1
           1           1           1           1           1           1
           1           1           1           1           1           1
           1           1           1           1           1           1
           1           1           1           1           1           1
           1           1           1           1           1           1
           1           1           1           1           1           1
           1           1           1           1           1           1
Density Shell to atom map                  I   N=          84
           1           1           1           1           1           1
           1           1           1           1           1           1
           1           1           1           1           1           1
           2           2           2           2           2           2
           2           2           2           2           2           2
           2           2           2           2           2           2
           3           3           3           3           3           3
           3           3           3           3           3           3
           3           3           3           3           3           3
           4           4           4           4           4           4
           4           4           4           4           5           5
           5           5           5           5           5           5
           5           5           6           6           6           6
           6           6           6           6           6           6
Density Primitive exponents                R   N=          84
  1.33300000E+04  2.00000000E+03  4.56000000E+02  1.29420000E+02  4.21200000E+01
  1.68220457E+01  1.68220457E+01  4.73269226E+00  4.73269226E+00  1.06897221E+00
  1.06897221E+00  1.06897221E+00  3.10840122E-01  3.10840122E-01  3.10840122E-01
  8.70684558E-02  8.70684558E-02  8.70684558E-02  1.80920000E+04  2.71400000E+03
  6.18600000E+02  1.75460000E+02  5.71200000E+01  2.35240728E+01  2.35240728E+01
  6.69191931E+00  6.69191931E+00  1.55251192E+00  1.55251192E+00  1.55251192E+00
  4.45796600E-01  4.45796600E-01  4.45796600E-01  1.17237816E-01  1.17237816E-01
  1.17237816E-01  2.34400000E+04  3.51800000E+03  8.01600000E+02  2.27400000E+02
  7.40600000E+01  3.06515252E+01  3.06515252E+01  8.80144306E+00  8.80144306E+00
  2.20889185E+00  2.20889185E+00  2.20889185E+00  5.90645853E-01  5.90645853E-01
  5.90645853E-01  1.47152949E-01  1.47152949E-01  1.47152949E-01  2.60200000E+01
  3.92400000E+00  1.45400000E+00  1.45400000E+00  8.89200000E-01  8.89200000E-01
  2.62312790E-01  2.62312790E-01  5.94800000E-02  5.94800000E-02  2.60200000E+01
  3.92400000E+00  1.45400000E+00  1.45400000E+00  8.89200000E-01  8.89200000E-01
  2.62312790E-01  2.62312790E-01  5.94800000E-02  5.94800000E-02  2.60200000E+01
  3.92400000E+00  1.45400000E+00  1.45400000E+00  8.89200000E-01  8.89200000E-01
  2.62312790E-01  2.62312790E-01  5.94800000E-02  5.94800000E-02
Density Contraction coefficients           R   N=          84
  1.00000000E+00  1.00000000E+00  1.00000000E+00  1.00000000E+00  1.00000000E+00
  1.00000000E+00  1.00000000E+00  1.00000000E+00  1.00000000E+00  1.00000000E+00
  1.00000000E+00  1.00000000E+00  1.00000000E+00  1.00000000E+00  1.00000000E+00
  1.00000000E+00  1.00000000E+00  1.00000000E+00  1.00000000E+00  1.00000000E+00
  1.00000000E+00  1.00000000E+00  1.00000000E+00  1.00000000E+00  1.00000000E+00
  1.00000000E+00  1.00000000E+00  1.00000000E+00  1.00000000E+00  1.00000000E+00
  1.00000000E+00  1.00000000E+00  1.00000000E+00  1.00000000E+00  1.00000000E+00
  1.00000000E+00  1.00000000E+00  1.00000000E+00  1.00000000E+00  1.00000000E+00
  1.00000000E+00  1.00000000E+00  1.00000000E+00  1.00000000E+00  1.00000000E+00
  1.00000000E+00  1.00000000E+00  1.00000000E+00  1.00000000E+00  1.00000000E+00
  1.00000000E+00  1.00000000E+00  1.00000000E+00  1.00000000E+00  1.00000000E+00
  1.00000000E+00  1.00000000E+00  1.00000000E+00  1.00000000E+00  1.00000000E+00
  1.00000000E+00  1.00000000E+00  1.00000000E+00  1.00000000E+00  1.00000000E+00
  1.00000000E+00  1.00000000E+00  1.00000000E+00  1.00000000E+00  1.00000000E+00
  1.00000000E+00  1.00000000E+00  1.00000000E+00  1.00000000E+00  1.00000000E+00
  1.00000000E+00  1.00000000E+00  1.00000000E+00  1.00000000E+00  1.00000000E+00
  1.00000000E+00  1.00000000E+00  1.00000000E+00  1.00000000E+00
Density P(S=P) Contraction coefficients    R   N=          84
  0.00000000E+00  0.00000000E+00  0.00000000E+00  0.00000000E+00  0.00000000E+00
  1.00000000E+00  0.00000000E+00  1.00000000E+00  0.00000000E+00  1.00000000E+00
  0.00000000E+00  0.00000000E+00  1.00000000E+00  0.00000000E+00  0.00000000E+00
  1.00000000E+00  0.00000000E+00  0.00000000E+00  0.00000000E+00  0.00000000E+00
  0.00000000E+00  0.00000000E+00  0.00000000E+00  1.00000000E+00  0.00000000E+00
  1.00000000E+00  0.00000000E+00  1.00000000E+00  0.00000000E+00  0.00000000E+00
  1.00000000E+00  0.00000000E+00  0.00000000E+00  1.00000000E+00  0.00000000E+00
  0.00000000E+00  0.00000000E+00  0.00000000E+00  0.00000000E+00  0.00000000E+00
  0.00000000E+00  1.00000000E+00  0.00000000E+00  1.00000000E+00  0.00000000E+00
  1.00000000E+00  0.00000000E+00  0.00000000E+00  1.00000000E+00  0.00000000E+00
  0.00000000E+00  1.00000000E+00  0.00000000E+00  0.00000000E+00  0.00000000E+00
  0.00000000E+00  1.00000000E+00  0.00000000E+00  1.00000000E+00  0.00000000E+00
  1.00000000E+00  0.00000000E+00  1.00000000E+00  0.00000000E+00  0.00000000E+00
  0.00000000E+00  1.00000000E+00  0.00000000E+00  1.00000000E+00  0.00000000E+00
  1.00000000E+00  0.00000000E+00  1.00000000E+00  0.00000000E+00  0.00000000E+00
  0.00000000E+00  1.00000000E+00  0.00000000E+00  1.00000000E+00  0.00000000E+00
  1.00000000E+00  0.00000000E+00  1.00000000E+00  0.00000000E+00
Density Coordinates of each shell          R   N=         252
 -1.85099838E-01  6.95687821E-01  7.69102770E-05 -1.85099838E-01  6.95687821E-01
  7.69102770E-05 -1.85099838E-01  6.95687821E-01  7.69102770E-05 -1.85099838E-01
  6.95687821E-01  7.69102770E-05 -1.85099838E-01  6.95687821E-01  7.69102770E-05
 -1.85099838E-01  6.95687821E-01  7.69102770E-05 -1.85099838E-01  6.95687821E-01
  7.69102770E-05 -1.85099838E-01  6.95687821E-01  7.69102770E-05 -1.85099838E-01
  6.95687821E-01  7.69102770E-05 -1.85099838E-01  6.95687821E-01  7.69102770E-05
 -1.85099838E-01  6.95687821E-01  7.69102770E-05 -1.85099838E-01  6.95687821E-01
  7.69102770E-05 -1.85099838E-01  6.95687821E-01  7.69102770E-05 -1.85099838E-01
  6.95687821E-01  7.69102770E-05 -1.85099838E-01  6.95687821E-01  7.69102770E-05
 -1.85099838E-01  6.95687821E-01  7.69102770E-05 -1.85099838E-01  6.95687821E-01
  7.69102770E-05 -1.85099838E-01  6.95687821E-01  7.69102770E-05  2.03447012E+00
 -3.32833354E-01  1.80293394E-04  2.03447012E+00 -3.32833354E-01  1.80293394E-04
  2.03447012E+00 -3.32833354E-01  1.80293394E-04  2.03447012E+00 -3.32833354E-01
  1.80293394E-04  2.03447012E+00 -3.32833354E-01  1.80293394E-04  2.03447012E+00
 -3.32833354E-01  1.80293394E-04  2.03447012E+00 -3.32833354E-01  1.80293394E-04
  2.03447012E+00 -3.32833354E-01  1.80293394E-04  2.03447012E+00 -3.32833354E-01
  1.80293394E-04  2.03447012E+00 -3.32833354E-01  1.80293394E-04  2.03447012E+00
 -3.32833354E-01  1.80293394E-04  2.03447012E+00 -3.32833354E-01  1.80293394E-04
  2.03447012E+00 -3.32833354E-01  1.80293394E-04  2.03447012E+00 -3.32833354E-01
  1.80293394E-04  2.03447012E+00 -3.32833354E-01  1.80293394E-04  2.03447012E+00
 -3.32833354E-01  1.80293394E-04  2.03447012E+00 -3.32833354E-01  1.80293394E-04
  2.03447012E+00 -3.32833354E-01  1.80293394E-04 -2.31355903E+00 -3.49214421E-01
 -2.05495959E-04 -2.31355903E+00 -3.49214421E-01 -2.05495959E-04 -2.31355903E+00
 -3.49214421E-01 -2.05495959E-04 -2.31355903E+00 -3.49214421E-01 -2.05495959E-04
 -2.31355903E+00 -3.49214421E-01 -2.05495959E-04 -2.31355903E+00 -3.49214421E-01
 -2.05495959E-04 -2.31355903E+00 -3.49214421E-01 -2.05495959E-04 -2.31355903E+00
 -3.49214421E-01 -2.05495959E-04 -2.31355903E+00 -3.49214421E-01 -2.05495959E-04
 -2.31355903E+00 -3.49214421E-01 -2.05495959E-04 -2.31355903E+00 -3.49214421E-01
 -2.05495959E-04 -2.31355903E+00 -3.49214421E-01 -2.05495959E-04 -2.31355903E+00
 -3.49214421E-01 -2.05495959E-04 -2.31355903E+00 -3.49214421E-01 -2.05495959E-04
 -2.31355903E+00 -3.49214421E-01 -2.05495959E-04 -2.31355903E+00 -3.49214421E-01
 -2.05495959E-04 -2.31355903E+00 -3.49214421E-01 -2.05495959E-04 -2.31355903E+00
 -3.49214421E-01 -2.05495959E-04  2.27652054E+00 -2.23119393E+00  1.57403752E-04
  2.27652054E+00 -2.23119393E+00  1.57403752E-04  2.27652054E+00 -2.23119393E+00
  1.57403752E-04  2.27652054E+00 -2.23119393E+00  1.57403752E-04  2.27652054E+00
 -2.23119393E+00  1.57403752E-04  2.27652054E+00 -2.23119393E+00  1.57403752E-04
  2.27652054E+00 -2.23119393E+00  1.57403752E-04  2.27652054E+00 -2.23119393E+00
  1.57403752E-04  2.27652054E+00 -2.23119393E+00  1.57403752E-04  2.27652054E+00
 -2.23119393E+00  1.57403752E-04  3.58524245E+00  8.18229419E-01  2.31677466E-04
  3.58524245E+00  8.18229419E-01  2.31677466E-04  3.58524245E+00  8.18229419E-01
  2.31677466E-04  3.58524245E+00  8.18229419E-01  2.31677466E-04  3.58524245E+00
  8.18229419E-01  2.31677466E-04  3.58524245E+00  8.18229419E-01  2.31677466E-04
  3.58524245E+00  8.18229419E-01  2.31677466E-04  3.58524245E+00  8.18229419E-01
  2.31677466E-04  3.58524245E+00  8.18229419E-01  2.31677466E-04  3.58524245E+00
  8.18229419E-01  2.31677466E-04 -3.33542842E-01  2.77709734E+00 -3.07183598E-05
 -3.33542842E-01  2.77709734E+00 -3.07183598E-05 -3.33542842E-01  2.77709734E+00
 -3.07183598E-05 -3.33542842E-01  2.77709734E+00 -3.07183598E-05 -3.33542842E-01
  2.77709734E+00 -3.07183598E-05 -3.33542842E-01  2.77709734E+00 -3.07183598E-05
 -3.33542842E-01  2.77709734E+00 -3.07183598E-05 -3.33542842E-01  2.77709734E+00
 -3.07183598E-05 -3.33542842E-01  2.77709734E+00 -3.07183598E-05 -3.33542842E-01
  2.77709734E+00 -3.07183598E-05
Constraint Structure                       R   N=          18
 -2.80446696E-01  7.35880143E-01 -1.51178091E-05  2.03313745E+00 -3.04100398E-01
  1.13383568E-04 -2.26580242E+00 -4.61796155E-01 -1.43619186E-04  2.23366952E+00
 -2.20464521E+00  1.73854804E-04  3.59611482E+00  7.87938319E-01  2.91017824E-04
 -2.52641266E-01  2.82449617E+00 -9.44863066E-06
Num ILSW                                   I              100
ILSW                                       I   N=         100
           0           0           0           0           2           0
           0           0           0           0       20419          -1
           5           0           0           0           0           0
           0           0           1           0           1           0
           1           1           0           0           0           0
           0           0      100000           0          -1           0
           0           0           0           0           0           0
           0           0           0           1           0           0
           0           0           1           0           0           0
           0           0           4          40           0           0
           0           0          40           0           0           0
           0           0           0           0           0           0
           0           0           0           0           0           0
           0           0           0           0           0           0
           0           0           0           0           0           0
           0           0           0           0           0           0
           0           0           0           0
Num RLSW                                   I               40
RLSW                                       R   N=          40
  1.00000000E+00  1.00000000E+00  1.00000000E+00  8.10000000E-01  1.00000000E+00
  0.00000000E+00  3.30000000E-01  1.90000000E-01  0.00000000E+00  4.60000000E-01
  0.00000000E+00  3.30000000E-01  1.90000000E-01  0.00000000E+00  4.60000000E-01
  0.00000000E+00  0.00000000E+00  1.00000000E+00  0.00000000E+00  0.00000000E+00
  0.00000000E+00  0.00000000E+00  1.00000000E+00  0.00000000E+00  0.00000000E+00
  0.00000000E+00  0.00000000E+00  1.00000000E+00  0.00000000E+00  0.00000000E+00
  0.00000000E+00  0.00000000E+00  0.00000000E+00  0.00000000E+00  0.00000000E+00
  0.00000000E+00  0.00000000E+00  0.00000000E+00  1.00000000E+00  1.00000000E+00
MxBond                                     I                3
NBond                                      I   N=           6
           3           3           1           1           1           1
IBond                                      I   N=          18
           2           3           6           1           4           5
           1           0           0           2           0           0
           2           0           0           1           0           0
RBond                                      R   N=          18
  1.41000000E+00  2.00000000E+00  1.00000000E+00  1.41000000E+00  1.00000000E+00
  1.00000000E+00  2.00000000E+00  0.00000000E+00  0.00000000E+00  1.00000000E+00
  0.00000000E+00  0.00000000E+00  1.00000000E+00  0.00000000E+00  0.00000000E+00
  1.00000000E+00  0.00000000E+00  0.00000000E+00
Virial Ratio                               R      2.006297803045284E+00
SCF Energy                                 R     -1.698582305848974E+02
CIS Energy                                 R     -1.696121308228181E+02
Total Energy                               R     -1.696121308228181E+02
Post-SCF wavefunction norm                 R      1.000000000000000E+00
RMS Force                                  R      2.929216576159571E-05
RMS Density                                R      2.772138933754072E-09
External E-field                           R   N=          35
  0.00000000E+00  0.00000000E+00  0.00000000E+00  0.00000000E+00  0.00000000E+00
  0.00000000E+00  0.00000000E+00  0.00000000E+00  0.00000000E+00  0.00000000E+00
  0.00000000E+00  0.00000000E+00  0.00000000E+00  0.00000000E+00  0.00000000E+00
  0.00000000E+00  0.00000000E+00  0.00000000E+00  0.00000000E+00  0.00000000E+00
  0.00000000E+00  0.00000000E+00  0.00000000E+00  0.00000000E+00  0.00000000E+00
  0.00000000E+00  0.00000000E+00  0.00000000E+00  0.00000000E+00  0.00000000E+00
  0.00000000E+00  0.00000000E+00  0.00000000E+00  0.00000000E+00  0.00000000E+00
IOpCl                                      I                0
IROHF                                      I                0
Alpha Orbital Energies                     R   N=          96
 -1.91979519E+01 -1.44494607E+01 -1.03727549E+01 -1.11873467E+00 -1.01630245E+00
 -7.13245756E-01 -6.41067537E-01 -5.69829558E-01 -4.91457328E-01 -4.85417933E-01
 -3.52561565E-01 -3.33379122E-01  1.58709752E-02  3.27639710E-02  4.39394147E-02
  5.35532895E-02  7.71166235E-02  8.23433453E-02  9.51907117E-02  1.25842993E-01
  1.41276820E-01  1.49896162E-01  1.59742149E-01  1.80417690E-01  2.07239244E-01
  2.12100933E-01  2.13242425E-01  2.53495388E-01  2.71334128E-01  2.83328069E-01
  2.87416139E-01  3.56900284E-01  3.70070913E-01  3.72274980E-01  3.92992079E-01
  4.45477816E-01  4.56962003E-01  4.74925156E-01  5.03955122E-01  5.12883786E-01
  5.23941787E-01  5.44429186E-01  5.64423173E-01  5.71751689E-01  5.80149914E-01
  6.28894274E-01  6.65470077E-01  6.96169561E-01  7.19197325E-01  7.53183061E-01
  8.00928768E-01  8.30714121E-01  8.53264520E-01  8.74351251E-01  9.24448634E-01
  1.05204418E+00  1.07499040E+00  1.09743308E+00  1.13933858E+00  1.18717917E+00
  1.23904662E+00  1.29216923E+00  1.29364018E+00  1.35385801E+00  1.41675069E+00
  1.48083749E+00  1.48350932E+00  1.66782916E+00  1.72344680E+00  1.74901249E+00
  1.76264283E+00  1.80053398E+00  1.82780891E+00  1.90291900E+00  1.98044407E+00
  2.03024745E+00  2.04413383E+00  2.08822876E+00  2.14477949E+00  2.18950158E+00
  2.21672735E+00  2.28749738E+00  2.50585445E+00  2.50687345E+00  2.56741853E+00
  2.64341609E+00  2.70381029E+00  2.87467206E+00  3.07787983E+00  3.19238047E+00
  3.35410269E+00  3.40995605E+00  3.46482117E+00  3.48700084E+00  3.66116121E+00
  3.77468405E+00
Alpha MO coefficients                      R   N=        9216
  1.40120326E-04  9.52181814E-04  2.16187842E-02  4.24594209E-03 -7.85648588E-04
 -4.68069341E-04 -1.79802399E-07 -1.13109132E-02 -8.54493021E-03 -1.55012326E-06
 -1.54391427E-03  7.13502216E-04 -1.45459794E-07 -5.26141322E-04  5.51450352E-09
 -9.09965598E-08 -5.00145321E-04 -5.91608553E-04 -3.39370303E-03  1.12648358E-06
  1.01266351E-06  5.43245321E-03  8.20165665E-03  5.60628853E-05  2.82184644E-04
  4.01912295E-04  6.74622869E-03  6.73141036E-05  3.54109222E-05 -4.83302604E-09
  3.13488278E-03 -2.10388252E-03  2.68523794E-07 -2.16099706E-03  9.45511204E-04
 -8.18413524E-08  1.35264133E-05 -2.90424732E-08  2.08022561E-08 -4.07926640E-04
 -1.62614563E-04  1.33473452E-03 -2.22238460E-07 -1.17500785E-07 -3.21746592E-04
  1.19011213E-03  9.96865365E-01  2.61180218E-02 -3.02093133E-02 -1.48865564E-02
  1.73780483E-03  7.44655147E-04  2.77107477E-07 -8.23766211E-03 -3.65385530E-03
 -1.32710558E-06 -3.29769060E-03 -1.64417328E-03 -4.41463792E-07  3.14377081E-05
  1.31528954E-08  1.61608940E-08  5.98553916E-05  9.98628119E-05  3.73901239E-04
 -2.65323424E-07 -1.58405108E-07 -6.85478447E-04 -9.50397941E-04  5.29057215E-05