 Entering Gaussian System, Link 0=g09
 Input=td2-opt.com
 Output=td2-opt.log
 Initial command:
 /home/diegoa/progs/g09/l1.exe /home/diegoa/g09scratch/Gau-28507.inp -scrdir=/home/diegoa/g09scratch/
 Default is to use a total of   4 processors:
                                4 via shared-memory
                                1 via Linda
 Entering Link 1 = /home/diegoa/progs/g09/l1.exe PID=     28509.
  
 Copyright (c) 1988,1990,1992,1993,1995,1998,2003,2009, Gaussian, Inc.
                  All Rights Reserved.
  
 This is part of the Gaussian(R) 09 program.  It is based on
 the Gaussian(R) 03 system (copyright 2003, Gaussian, Inc.),
 the Gaussian(R) 98 system (copyright 1998, Gaussian, Inc.),
 the Gaussian(R) 94 system (copyright 1995, Gaussian, Inc.),
 the Gaussian 92(TM) system (copyright 1992, Gaussian, Inc.),
 the Gaussian 90(TM) system (copyright 1990, Gaussian, Inc.),
 the Gaussian 88(TM) system (copyright 1988, Gaussian, Inc.),
 the Gaussian 86(TM) system (copyright 1986, Carnegie Mellon
 University), and the Gaussian 82(TM) system (copyright 1983,
 Carnegie Mellon University). Gaussian is a federally registered
 trademark of Gaussian, Inc.
  
 This software contains proprietary and confidential information,
 including trade secrets, belonging to Gaussian, Inc.
  
 This software is provided under written license and may be
 used, copied, transmitted, or stored only in accord with that
 written license.
  
 The following legend is applicable only to US Government
 contracts under FAR:
  
                    RESTRICTED RIGHTS LEGEND
  
 Use, reproduction and disclosure by the US Government is
 subject to restrictions as set forth in subparagraphs (a)
 and (c) of the Commercial Computer Software - Restricted
 Rights clause in FAR 52.227-19.
  
 Gaussian, Inc.
 340 Quinnipiac St., Bldg. 40, Wallingford CT 06492
  
  
 ---------------------------------------------------------------
 Warning -- This program may not be used in any manner that
 competes with the business of Gaussian, Inc. or will provide
 assistance to any competitor of Gaussian, Inc.  The licensee
 of this program is prohibited from giving any competitor of
 Gaussian, Inc. access to this program.  By using this program,
 the user acknowledges that Gaussian, Inc. is engaged in the
 business of creating and licensing software in the field of
 computational chemistry and represents and warrants to the
 licensee that it is not a competitor of Gaussian, Inc. and that
 it will not use this program in any manner prohibited above.
 ---------------------------------------------------------------
  

 Cite this work as:
 Gaussian 09, Revision A.01,
 M. J. Frisch, G. W. Trucks, H. B. Schlegel, G. E. Scuseria, 
 M. A. Robb, J. R. Cheeseman, G. Scalmani, V. Barone, B. Mennucci, 
 G. A. Petersson, H. Nakatsuji, M. Caricato, X. Li, H. P. Hratchian, 
 A. F. Izmaylov, J. Bloino, G. Zheng, J. L. Sonnenberg, M. Hada, 
 M. Ehara, K. Toyota, R. Fukuda, J. Hasegawa, M. Ishida, T. Nakajima, 
 Y. Honda, O. Kitao, H. Nakai, T. Vreven, J. A. Montgomery, Jr., 
 J. E. Peralta, F. Ogliaro, M. Bearpark, J. J. Heyd, E. Brothers, 
 K. N. Kudin, V. N. Staroverov, R. Kobayashi, J. Normand, 
 K. Raghavachari, A. Rendell, J. C. Burant, S. S. Iyengar, J. Tomasi, 
 M. Cossi, N. Rega, J. M. Millam, M. Klene, J. E. Knox, J. B. Cross, 
 V. Bakken, C. Adamo, J. Jaramillo, R. Gomperts, R. E. Stratmann, 
 O. Yazyev, A. J. Austin, R. Cammi, C. Pomelli, J. W. Ochterski, 
 R. L. Martin, K. Morokuma, V. G. Zakrzewski, G. A. Voth, 
 P. Salvador, J. J. Dannenberg, S. Dapprich, A. D. Daniels, 
 O. Farkas, J. B. Foresman, J. V. Ortiz, J. Cioslowski, 
 and D. J. Fox, Gaussian, Inc., Wallingford CT, 2009.
 
 ******************************************
 Gaussian 09:  EM64L-G09RevA.01  8-May-2009
                28-Oct-2019 
 ******************************************
 %chk=td2-opt.chk
 %NProcShared=4
 Will use up to    4 processors via shared memory.
 Default route:  MP2=Direct MaxDisk=1000GB DenFit
 ----------------------------------------------------------------------
 # cam-b3lyp/aug-cc-pvdz opt nosymm td(root=2,nstates=20) SCRF=PCM int(
 grid=ultrafine)
 ----------------------------------------------------------------------
 1/14=-1,18=20,19=15,26=3,38=1/1,3;
 2/9=110,12=2,15=1,17=6,18=5,40=1/2;
 3/5=16,7=10,11=2,16=1,25=1,30=1,70=2201,71=1,72=1,74=-40,75=-5,82=47/1,2,8,3;
 4//1;
 5/5=2,38=5/2;
 8/6=1,10=1,107=2,108=20/1;
 9/8=2,15=2,41=20,42=1/14;
 10/5=4,31=1/2;
 6/7=2,8=2,9=2,10=2/1;
 7/12=6,13=5,14=2,30=1/1,2,3,16;
 1/14=-1,18=20,19=15/3(2);
 2/9=110,15=1/2;
 99//99;
 2/9=110,15=1/2;
 3/5=16,7=10,11=2,16=1,25=1,30=1,70=2205,71=1,74=-40,75=-5,82=47/1,2,8,3;
 4/5=5,16=3/1;
 5/5=2,38=5/2;
 8/6=1,10=1,107=2,108=20/1;
 9/8=2,15=2,41=20,42=1,49=4/14;
 10/5=4,31=1/2;
 7/12=6,13=5,14=2,30=1/1,2,3,16;
 1/14=-1,18=20,19=15/3(-8);
 2/9=110,15=1/2;
 6/7=2,8=2,9=2,10=2/1;
 99//99;
 -----
 Title
 -----
 Symbolic Z-matrix:
 Charge =  0 Multiplicity = 1
 6                    -0.14841   0.38941  -0.00001 
 7                     1.07589  -0.16092   0.00006 
 8                    -1.19901  -0.24437  -0.00008 
 1                     1.18201  -1.16665   0.00009 
 1                     1.90298   0.41696   0.00015 
 1                    -0.13369   1.49466  -0.00001 
 

 GradGradGradGradGradGradGradGradGradGradGradGradGradGradGradGradGradGrad
 Berny optimization.
 Initialization pass.
                           ----------------------------
                           !    Initial Parameters    !
                           ! (Angstroms and Degrees)  !
 --------------------------                            --------------------------
 ! Name  Definition              Value          Derivative Info.                !
 --------------------------------------------------------------------------------
 ! R1    R(1,2)                  1.3423         estimate D2E/DX2                !
 ! R2    R(1,3)                  1.227          estimate D2E/DX2                !
 ! R3    R(1,6)                  1.1053         estimate D2E/DX2                !
 ! R4    R(2,4)                  1.0113         estimate D2E/DX2                !
 ! R5    R(2,5)                  1.009          estimate D2E/DX2                !
 ! A1    A(2,1,3)              124.6949         estimate D2E/DX2                !
 ! A2    A(2,1,6)              113.4417         estimate D2E/DX2                !
 ! A3    A(3,1,6)              121.8634         estimate D2E/DX2                !
 ! A4    A(1,2,4)              120.2276         estimate D2E/DX2                !
 ! A5    A(1,2,5)              120.8539         estimate D2E/DX2                !
 ! A6    A(4,2,5)              118.9185         estimate D2E/DX2                !
 ! D1    D(3,1,2,4)             -0.0023         estimate D2E/DX2                !
 ! D2    D(3,1,2,5)           -179.9974         estimate D2E/DX2                !
 ! D3    D(6,1,2,4)            179.9982         estimate D2E/DX2                !
 ! D4    D(6,1,2,5)              0.0031         estimate D2E/DX2                !
 --------------------------------------------------------------------------------
 Trust Radius=3.00D-01 FncErr=1.00D-07 GrdErr=1.00D-06
 Number of steps in this run=  25 maximum allowed number of steps= 100.
 GradGradGradGradGradGradGradGradGradGradGradGradGradGradGradGradGradGrad

                          Input orientation:                          
 ---------------------------------------------------------------------
 Center     Atomic      Atomic             Coordinates (Angstroms)
 Number     Number       Type             X           Y           Z
 ---------------------------------------------------------------------
      1          6           0       -0.148406    0.389411   -0.000008
      2          7           0        1.075890   -0.160923    0.000060
      3          8           0       -1.199011   -0.244372   -0.000076
      4          1           0        1.182007   -1.166648    0.000092
      5          1           0        1.902982    0.416959    0.000154
      6          1           0       -0.133692    1.494659   -0.000005
 ---------------------------------------------------------------------
                    Distance matrix (angstroms):
                    1          2          3          4          5
     1  C    0.000000
     2  N    1.342300   0.000000
     3  O    1.226969   2.276431   0.000000
     4  H    2.047271   1.011308   2.553398   0.000000
     5  H    2.051573   1.008974   3.171706   1.740005   0.000000
     6  H    1.105346   2.050376   2.039395   2.968774   2.304231
                    6
     6  H    0.000000
 Symmetry turned off by external request.
 Stoichiometry    CH3NO
 Framework group  C1[X(CH3NO)]
 Deg. of freedom    12
 Full point group                 C1      NOp   1
 Rotational constants (GHZ):     73.1415518     11.3903967      9.8555789
 Standard basis: Aug-CC-pVDZ (5D, 7F)
 Integral buffers will be    131072 words long.
 Raffenetti 2 integral format.
 Two-electron integral symmetry is turned off.
    96 basis functions,   162 primitive gaussians,   102 cartesian basis functions
    12 alpha electrons       12 beta electrons
       nuclear repulsion energy        71.1695258840 Hartrees.
 NAtoms=    6 NActive=    6 NUniq=    6 SFac= 7.50D-01 NAtFMM=   80 NAOKFM=F Big=F
 Standard density basis: Auto (5D, 7F)
   327 Density fitting functions
 ------------------------------------------------------------------------------
 Polarizable Continuum Model (PCM)
 =================================
 Model                : PCM.
 Atomic radii         : UFF (Universal Force Field).
 Polarization charges : Total charges.
 Charge compensation  : None.
 Solution method      : Matrix inversion.
 Cavity type          : Scaled VdW (van der Waals Surface) (Alpha=1.100).
 Cavity algorithm     : GePol (No added spheres)
                        Default sphere list used, NSphG=    6.
                        Lebedev-Laikov grids with approx.  5.0 points / Ang**2.
                        Smoothing algorithm: Karplus/York (Gamma=1.0000).
                        Polarization charges: spherical gaussians, with
                                              point-specific exponents (IZeta= 3).
                        Self-potential: point-specific (ISelfS= 7).
                        Self-field    : sphere-specific E.n sum rule (ISelfD= 2).
 1st derivatives      : Analytical E(r).r(x)/FMM algorithm (CHGder, D1EAlg=3).
                        Cavity 1st derivative terms included.
 Solvent              : Water, Eps=  78.355300 Eps(inf)=   1.777849
 ------------------------------------------------------------------------------
 Spheres list:
 ISph  on   Nord    Re0     Alpha      Xe            Ye            Ze
    1   C      1    1.926   1.100     -0.148406      0.389411     -0.000008
    2   N      2    1.830   1.100      1.075890     -0.160923      0.000060
    3   O      3    1.750   1.100     -1.199011     -0.244372     -0.000076
    4   H      4    1.443   1.100      1.182007     -1.166648      0.000092
    5   H      5    1.443   1.100      1.902982      0.416959      0.000154
    6   H      6    1.443   1.100     -0.133692      1.494659     -0.000005
 ------------------------------------------------------------------------------
 One-electron integrals computed using PRISM.
 NBasis=    96 RedAO= T  NBF=    96
 NBsUse=    96 1.00D-06 NBFU=    96
 Harris functional with IExCor=20419 diagonalized for initial guess.
 ExpMin= 2.97D-02 ExpMax= 1.17D+04 ExpMxC= 4.01D+02 IAcc=3 IRadAn=         5 AccDes= 0.00D+00
 HarFok:  IExCor=20419 AccDes= 0.00D+00 IRadAn=         5 IDoV= 1
 ScaDFX=  1.000000  1.000000  1.000000  1.000000
 FoFCou: FMM=F IPFlag=           0 FMFlag=      100000 FMFlg1=           0
         NFxFlg=           0 DoJE=T BraDBF=F KetDBF=T FulRan=T
         Omega=  0.000000  0.000000  1.000000  0.000000  0.000000 ICntrl=     500 IOpCl=  0
         NMat0=    1 NMatS0=    1 NMatT0=    0 NMatD0=    1 NMtDS0=    0 NMtDT0=    0
         I1Cent=           4 NGrid=           0.
 Symmetry not used in FoFCou.
 Requested convergence on RMS density matrix=1.00D-08 within 128 cycles.
 Requested convergence on MAX density matrix=1.00D-06.
 Requested convergence on             energy=1.00D-06.
 No special actions if energy rises.
 FoFJK:  IHMeth= 1 ICntrl=     0 DoSepK=T KAlg= 1 I1Cent= 0 FoldK=F
 FoFJK:  IHMeth= 1 ICntrl=     0 DoSepK=T KAlg= 1 I1Cent= 0 FoldK=F
 FoFJK:  IHMeth= 1 ICntrl=     0 DoSepK=T KAlg= 1 I1Cent= 0 FoldK=F
 FoFJK:  IHMeth= 1 ICntrl=     0 DoSepK=T KAlg= 1 I1Cent= 0 FoldK=F
 FoFJK:  IHMeth= 1 ICntrl=     0 DoSepK=T KAlg= 1 I1Cent= 0 FoldK=F
 FoFJK:  IHMeth= 1 ICntrl=     0 DoSepK=T KAlg= 1 I1Cent= 0 FoldK=F
 FoFJK:  IHMeth= 1 ICntrl=     0 DoSepK=T KAlg= 1 I1Cent= 0 FoldK=F
 FoFJK:  IHMeth= 1 ICntrl=     0 DoSepK=T KAlg= 1 I1Cent= 0 FoldK=F
 FoFJK:  IHMeth= 1 ICntrl=     0 DoSepK=T KAlg= 1 I1Cent= 0 FoldK=F
 FoFJK:  IHMeth= 1 ICntrl=     0 DoSepK=T KAlg= 1 I1Cent= 0 FoldK=F
 FoFJK:  IHMeth= 1 ICntrl=     0 DoSepK=T KAlg= 1 I1Cent= 0 FoldK=F
 Error on total polarization charges =  0.01050
 SCF Done:  E(RCAM-B3LYP) =  -169.864201704     A.U. after   11 cycles
             Convg  =    0.4600D-08             -V/T =  2.0064
 ExpMin= 2.97D-02 ExpMax= 1.17D+04 ExpMxC= 4.01D+02 IAcc=3 IRadAn=         5 AccDes= 0.00D+00
 HarFok:  IExCor=  205 AccDes= 0.00D+00 IRadAn=         5 IDoV=-2
 ScaDFX=  1.000000  1.000000  1.000000  1.000000
 Range of M.O.s used for correlation:     4    96
 NBasis=    96 NAE=    12 NBE=    12 NFC=     3 NFV=     0
 NROrb=     93 NOA=     9 NOB=     9 NVA=    84 NVB=    84

 **** Warning!!: The largest alpha MO coefficient is  0.18832976D+02

 NEqPCM:  Using equilibrium solvation (IEInf=0, Eps=  78.3553, EpsInf=   1.7778)
    80 initial guesses have been made.
 Convergence on wavefunction:    0.000001000000000
 Iteration     1 Dimension    80 NMult    80
 CISAX will form    80 AO SS matrices at one time.
 FoFJK:  IHMeth= 1 ICntrl=     0 DoSepK=T KAlg= 1 I1Cent= 0 FoldK=F
 FoFJK:  IHMeth= 1 ICntrl=     0 DoSepK=T KAlg= 1 I1Cent= 0 FoldK=F
 New state      1 was old state      6
 New state      2 was old state      1
 New state      3 was old state      2
 New state      4 was old state      3
 New state      6 was old state      4
 New state      8 was old state     11
 New state     10 was old state      8
 New state     11 was old state     10
 New state     13 was old state     14
 New state     14 was old state     13
 No map to state     17
 New state     20 was old state     17
 Iteration     2 Dimension   120 NMult   120
 FoFJK:  IHMeth= 1 ICntrl=     0 DoSepK=T KAlg= 1 I1Cent= 0 FoldK=F
 FoFJK:  IHMeth= 1 ICntrl=     0 DoSepK=T KAlg= 1 I1Cent= 0 FoldK=F
 New state      7 was old state      8
 New state      8 was old state      7
 New state     13 was old state     14
 New state     14 was old state     13
 New state     16 was old state     17
 New state     17 was old state     16
 New state     19 was old state     20
 New state     20 was old state     19
 Iteration     3 Dimension   160 NMult   160
 FoFJK:  IHMeth= 1 ICntrl=     0 DoSepK=T KAlg= 1 I1Cent= 0 FoldK=F
 FoFJK:  IHMeth= 1 ICntrl=     0 DoSepK=T KAlg= 1 I1Cent= 0 FoldK=F
 Iteration     4 Dimension   200 NMult   200
 FoFJK:  IHMeth= 1 ICntrl=     0 DoSepK=T KAlg= 1 I1Cent= 0 FoldK=F
 FoFJK:  IHMeth= 1 ICntrl=     0 DoSepK=T KAlg= 1 I1Cent= 0 FoldK=F
 Iteration     5 Dimension   240 NMult   240
 FoFJK:  IHMeth= 1 ICntrl=     0 DoSepK=T KAlg= 1 I1Cent= 0 FoldK=F
 FoFJK:  IHMeth= 1 ICntrl=     0 DoSepK=T KAlg= 1 I1Cent= 0 FoldK=F
 Iteration     6 Dimension   280 NMult   280
 FoFJK:  IHMeth= 1 ICntrl=     0 DoSepK=T KAlg= 1 I1Cent= 0 FoldK=F
 FoFJK:  IHMeth= 1 ICntrl=     0 DoSepK=T KAlg= 1 I1Cent= 0 FoldK=F
 Iteration     7 Dimension   306 NMult   306
 FoFJK:  IHMeth= 1 ICntrl=     0 DoSepK=T KAlg= 1 I1Cent= 0 FoldK=F
 FoFJK:  IHMeth= 1 ICntrl=     0 DoSepK=T KAlg= 1 I1Cent= 0 FoldK=F
 Iteration     8 Dimension   310 NMult   310
 FoFJK:  IHMeth= 1 ICntrl=     0 DoSepK=T KAlg= 1 I1Cent= 0 FoldK=F
 FoFJK:  IHMeth= 1 ICntrl=     0 DoSepK=T KAlg= 1 I1Cent= 0 FoldK=F
 ***********************************************************************
 Excited states from <AA,BB:AA,BB> singles matrix:
 ***********************************************************************
 
 Ground to excited state transition electric dipole moments (Au):
       state          X           Y           Z        Dip. S.      Osc.
         1         0.0000      0.0000      0.0822      0.0068      0.0010
         2         0.0464      0.1473      0.0001      0.0238      0.0041
         3        -0.0001      0.0000      0.2981      0.0889      0.0154
         4         1.3664      0.0327      0.0001      1.8682      0.3332
         5        -0.3274      0.8521      0.0000      0.8333      0.1562
         6         0.0000     -0.0001      0.0624      0.0039      0.0007
         7         0.7165      0.2569     -0.0001      0.5794      0.1134
         8        -0.0001     -0.0001     -0.4373      0.1912      0.0377
         9         0.0000      0.0000      0.1922      0.0369      0.0076
        10        -0.1655     -0.0543      0.0000      0.0303      0.0064
        11         0.1199     -0.1249      0.0000      0.0300      0.0066
        12         0.0000      0.0000      0.1840      0.0338      0.0076
        13        -0.0770     -0.0200     -0.0001      0.0063      0.0014
        14         0.0000      0.0000     -0.2236      0.0500      0.0115
        15         0.1673      0.0592      0.0000      0.0315      0.0077
        16         0.0000      0.0000     -0.0739      0.0055      0.0014
        17         0.0000      0.0000     -0.1805      0.0326      0.0082
        18        -0.0001     -0.0002     -0.1090      0.0119      0.0030
        19        -0.1834     -0.3992     -0.0001      0.1930      0.0497
        20        -0.0001     -0.0002      0.1933      0.0374      0.0096
 Ground to excited state transition velocity dipole moments (Au):
       state          X           Y           Z        Dip. S.      Osc.
         1         0.0000      0.0000     -0.0210      0.0004      0.0014
         2        -0.0100     -0.0389      0.0000      0.0016      0.0042
         3         0.0000      0.0000     -0.0748      0.0056      0.0144
         4        -0.3597     -0.0077      0.0000      0.1295      0.3227
         5         0.0919     -0.2362      0.0000      0.0642      0.1522
         6         0.0000      0.0000     -0.0185      0.0003      0.0008
         7        -0.2085     -0.0741      0.0000      0.0490      0.1112
         8         0.0000      0.0000      0.1255      0.0158      0.0356
         9         0.0000      0.0000     -0.0607      0.0037      0.0080
        10         0.0437      0.0149      0.0000      0.0021      0.0044
        11        -0.0375      0.0398      0.0000      0.0030      0.0060
        12         0.0000      0.0000     -0.0591      0.0035      0.0070
        13         0.0160      0.0060      0.0000      0.0003      0.0006
        14         0.0000      0.0000      0.0774      0.0060      0.0116
        15        -0.0606     -0.0149      0.0000      0.0039      0.0071
        16         0.0000      0.0000      0.0288      0.0008      0.0015
        17         0.0000      0.0000      0.0719      0.0052      0.0092
        18         0.0000      0.0001      0.0307      0.0009      0.0016
        19         0.0672      0.1554      0.0000      0.0287      0.0495
        20         0.0000      0.0001     -0.0730      0.0053      0.0092
 Ground to excited state transition magnetic dipole moments (Au):
       state          X           Y           Z
         1        -0.9740     -0.3873     -0.0001
         2         0.0000      0.0001      0.5412
         3         0.0064      0.5643     -0.0001
         4         0.0000      0.0000      0.2587
         5         0.0000      0.0000     -0.1128
         6         0.0418     -0.0090      0.0000
         7         0.0000      0.0001      0.5025
         8        -0.0404      0.3354     -0.0001
         9        -0.0626      0.1138      0.0000
        10         0.0000      0.0000      0.0845
        11         0.0000     -0.0001     -0.0164
        12         0.1077     -0.2556      0.0000
        13         0.0000     -0.0001      0.1960
        14        -0.0774     -0.5400     -0.0001
        15         0.0000      0.0000     -0.3668
        16        -0.9732      0.8013      0.0000
        17         0.2623     -0.6644      0.0000
        18         0.1768     -0.5239      0.0000
        19        -0.0001      0.0004     -0.0263
        20         0.0035     -0.1046      0.0000
 <0|del|b> * <b|rxdel|0> + <0|del|b> * <b|delr+rdel|0>
 Rotatory Strengths (R) in cgs (10**-40 erg-esu-cm/Gauss)
       state          XX          YY          ZZ    R(velocity)
         1         0.0011      0.0052      0.0017      0.0027
 Total R(velocity) tensor for State=          1
                 1             2             3 
      1   0.110443D-02 -0.115851D-02  0.000000D+00
      2   0.103432D-02  0.523382D-02  0.000000D+00
      3  -0.288462D+02 -0.130520D+02  0.172735D-02
         2        -0.0262     -0.0048      0.0006     -0.0101
 Total R(velocity) tensor for State=          2
                 1             2             3 
      1  -0.262268D-01 -0.186277D-02  0.253178D+02
      2  -0.758332D-02 -0.484289D-02  0.199546D+02
      3   0.424875D+01 -0.109556D+01  0.632867D-03
         3         0.0277      0.0057      0.0007      0.0114
 Total R(velocity) tensor for State=          3
                 1             2             3 
      1   0.277001D-01 -0.566982D-02  0.409280D-05
      2   0.784762D-02  0.574073D-02  0.190879D-05
      3  -0.182200D+01  0.969135D+01  0.681105D-03
         4        -0.0107     -0.0090      0.0046     -0.0050
 Total R(velocity) tensor for State=          4
                 1             2             3 
      1  -0.106549D-01 -0.119266D-01  0.194034D+03
      2   0.367718D-02 -0.903324D-02 -0.619726D+02
      3  -0.598927D+00  0.280613D+02  0.458176D-02
         5        -0.0005      0.0009     -0.0028     -0.0008
 Total R(velocity) tensor for State=          5
                 1             2             3 
      1  -0.548710D-03 -0.589568D-03 -0.224316D+02
      2   0.115585D-02  0.949854D-03  0.298328D+02
      3   0.190214D+02  0.739973D+01 -0.276521D-02
         6        -0.0017     -0.0008      0.0008     -0.0006
 Total R(velocity) tensor for State=          6
                 1             2             3 
      1  -0.171410D-02 -0.718180D-03  0.000000D+00
      2  -0.516912D-02 -0.803579D-03  0.000000D+00
      3  -0.135621D+01  0.415202D+00  0.809637D-03
         7         0.0005      0.0149      0.0101      0.0085
 Total R(velocity) tensor for State=          7
                 1             2             3 
      1   0.538735D-03  0.436639D-01  0.207254D+03
      2  -0.587463D-02  0.148685D-01 -0.760412D+01
      3  -0.620806D+01  0.174641D+02  0.101053D-01
         8        -0.0129     -0.0141      0.0037     -0.0078
 Total R(velocity) tensor for State=          8
                 1             2             3 
      1  -0.128824D-01 -0.378815D-01  0.107358D-04
      2   0.661368D-02 -0.141422D-01  0.000000D+00
      3   0.618290D+01 -0.331765D+02  0.374961D-02
         9         0.0012      0.0000     -0.0007      0.0002
 Total R(velocity) tensor for State=          9
                 1             2             3 
      1   0.118168D-02 -0.139574D-02  0.000000D+00
      2  -0.561123D-03  0.363601D-04  0.000000D+00
      3  -0.380971D+01  0.320862D-03 -0.677637D-03
        10        -0.0001      0.0006     -0.0003      0.0001
 Total R(velocity) tensor for State=         10
                 1             2             3 
      1  -0.741230D-04 -0.703752D-03 -0.104572D+02
      2  -0.247265D-03  0.616596D-03 -0.124592D+01
      3  -0.266487D+01  0.782856D+01 -0.319292D-03
        11        -0.0002     -0.0045     -0.0009     -0.0018
 Total R(velocity) tensor for State=         11
                 1             2             3 
      1  -0.201066D-03 -0.623724D-02 -0.169255D+02
      2  -0.804807D-02 -0.446040D-02  0.871933D+01
      3   0.899208D+00  0.846471D+00 -0.886715D-03
        12         0.0002      0.0048     -0.0002      0.0016
 Total R(velocity) tensor for State=         12
                 1             2             3 
      1   0.171601D-03  0.702666D-02  0.000000D+00
      2   0.780809D-02  0.476047D-02  0.106634D-05
      3   0.638446D+00  0.294072D+01 -0.214292D-03
        13         0.0026      0.0061     -0.0017      0.0023
 Total R(velocity) tensor for State=         13
                 1             2             3 
      1   0.259713D-02  0.408561D-02 -0.275256D+01
      2  -0.358300D-02  0.606983D-02  0.878597D+00
      3   0.841917D+00 -0.225424D+01 -0.172814D-02
        14        -0.0026     -0.0056      0.0025     -0.0019
 Total R(velocity) tensor for State=         14
                 1             2             3 
      1  -0.260672D-02 -0.326675D-02  0.000000D+00
      2   0.296628D-02 -0.564343D-02  0.000000D+00
      3   0.170893D+02  0.352193D+02  0.247310D-02
        15         0.0005     -0.0005     -0.0013     -0.0004
 Total R(velocity) tensor for State=         15
                 1             2             3 
      1   0.498560D-03 -0.266128D-02 -0.157223D+02
      2   0.203963D-03 -0.545157D-03  0.696253D+01
      3  -0.132758D+01  0.538753D+01 -0.130193D-02
        16        -0.0032      0.0013     -0.0005     -0.0008
 Total R(velocity) tensor for State=         16
                 1             2             3 
      1  -0.321190D-02  0.191328D-02  0.000000D+00
      2  -0.360450D-02  0.132653D-02  0.000000D+00
      3   0.169369D+02 -0.190568D+02 -0.458219D-03
        17        -0.0018      0.0014     -0.0032     -0.0012
 Total R(velocity) tensor for State=         17
                 1             2             3 
      1  -0.176278D-02 -0.530958D-03  0.000000D+00
      2  -0.143895D-02  0.140598D-02  0.000000D+00
      3  -0.264182D+02  0.180162D+02 -0.320837D-02
        18        -0.0535      0.0010     -0.0149     -0.0225
 Total R(velocity) tensor for State=         18
                 1             2             3 
      1  -0.535376D-01  0.370267D-01 -0.212725D-04
      2   0.393710D-02  0.993092D-03 -0.879304D-05
      3  -0.761796D+01  0.954170D+01 -0.149371D-01
        19         0.0616     -0.0061      0.0325      0.0293
 Total R(velocity) tensor for State=         19
                 1             2             3 
      1   0.615593D-01 -0.150193D-01 -0.588022D+02
      2   0.211484D-01 -0.605823D-02 -0.156468D+02
      3   0.539487D+02 -0.233285D+02  0.325293D-01
        20        -0.0084      0.0075     -0.0141     -0.0050
 Total R(velocity) tensor for State=         20
                 1             2             3 
      1  -0.836612D-02 -0.857233D-02 -0.163683D-04
      2  -0.260364D-01  0.746043D-02 -0.750953D-05
      3   0.248904D+00 -0.112231D+02 -0.141153D-01
 1/2[<0|r|b>*<b|rxdel|0> + (<0|rxdel|b>*<b|r|0>)*]
 Rotatory Strengths (R) in cgs (10**-40 erg-esu-cm/Gauss)
       state          XX          YY          ZZ     R(length)     R(au)
         1         0.0061     -0.0009      0.0032      0.0028      0.0000
         2         0.0008     -0.0110     -0.0207     -0.0103      0.0000
         3         0.0002      0.0114      0.0229      0.0115      0.0000
         4        -0.0015      0.0002     -0.0141     -0.0051      0.0000
         5         0.0016     -0.0029     -0.0011     -0.0008      0.0000
         6        -0.0003     -0.0006     -0.0008     -0.0006      0.0000
         7         0.0216     -0.0158      0.0206      0.0088      0.0000
         8        -0.0039      0.0178     -0.0379     -0.0080      0.0000
         9        -0.0016      0.0005      0.0016      0.0002      0.0000
        10         0.0006      0.0000     -0.0002      0.0001      0.0000
        11        -0.0017     -0.0046      0.0005     -0.0019      0.0000
        12         0.0029      0.0041     -0.0019      0.0017      0.0000
        13        -0.0015     -0.0021      0.0098      0.0021      0.0000
        14         0.0011      0.0038     -0.0101     -0.0017      0.0000
        15        -0.0012      0.0004     -0.0003     -0.0004      0.0000
        16         0.0041     -0.0042     -0.0024     -0.0009      0.0000
        17        -0.0024     -0.0064      0.0048     -0.0013      0.0000
        18         0.0155     -0.0815     -0.0007     -0.0222      0.0000
        19        -0.0112      0.0993     -0.0012      0.0290      0.0001
        20         0.0003     -0.0176      0.0025     -0.0049      0.0000
  1/2[<0|del|b>*<b|r|0> + (<0|r|b>*<b|del|0>)*] (Au)
       state          X           Y           Z        Dip. S.   Osc.(frdel)
         1         0.0000      0.0000     -0.0017      0.0017      0.0011
         2        -0.0005     -0.0057      0.0000      0.0062      0.0041
         3         0.0000      0.0000     -0.0223      0.0223      0.0149
         4        -0.4915     -0.0003      0.0000      0.4918      0.3279
         5        -0.0301     -0.2012      0.0000      0.2313      0.1542
         6         0.0000      0.0000     -0.0012      0.0012      0.0008
         7        -0.1494     -0.0190      0.0000      0.1684      0.1123
         8         0.0000      0.0000     -0.0549      0.0549      0.0366
         9         0.0000      0.0000     -0.0117      0.0117      0.0078
        10        -0.0072     -0.0008      0.0000      0.0080      0.0054
        11        -0.0045     -0.0050      0.0000      0.0095      0.0063
        12         0.0000      0.0000     -0.0109      0.0109      0.0072
        13        -0.0012     -0.0001      0.0000      0.0013      0.0009
        14         0.0000      0.0000     -0.0173      0.0173      0.0115
        15        -0.0101     -0.0009      0.0000      0.0110      0.0073
        16         0.0000      0.0000     -0.0021      0.0021      0.0014
        17         0.0000      0.0000     -0.0130      0.0130      0.0087
        18         0.0000      0.0000     -0.0033      0.0033      0.0022
        19        -0.0123     -0.0620      0.0000      0.0744      0.0496
        20         0.0000      0.0000     -0.0141      0.0141      0.0094
 Ground to excited state transition densities written to RWF  633

 Excitation energies and oscillator strengths:
 
 Excited state symmetry could not be determined.
 Excited State   1:      Singlet-?Sym    5.7585 eV  215.31 nm  f=0.0010  <S**2>=0.000
      12 -> 16         0.67201
      12 -> 17        -0.19817
 
 Excited state symmetry could not be determined.
 Excited State   2:      Singlet-?Sym    6.9828 eV  177.56 nm  f=0.0041  <S**2>=0.000
      11 -> 16         0.21060
      12 -> 13         0.58280
      12 -> 15         0.24535
      12 -> 18        -0.11639
      12 -> 20        -0.11128
 This state for optimization and/or second-order correction.
 Copying the excited state density for this state as the 1-particle RhoCI density.
 
 Excited state symmetry could not be determined.
 Excited State   3:      Singlet-?Sym    7.0555 eV  175.73 nm  f=0.0154  <S**2>=0.000
      11 -> 13         0.66495
      11 -> 14         0.10376
      11 -> 19        -0.13325
      11 -> 20        -0.13321
 
 Excited state symmetry could not be determined.
 Excited State   4:      Singlet-?Sym    7.2786 eV  170.34 nm  f=0.3332  <S**2>=0.000
      11 -> 16         0.55414
      11 -> 17        -0.24884
      12 -> 13        -0.12092
      12 -> 14         0.24545
      12 -> 15        -0.13901
      12 -> 18         0.10071
 
 Excited state symmetry could not be determined.
 Excited State   5:      Singlet-?Sym    7.6531 eV  162.01 nm  f=0.1562  <S**2>=0.000
      11 -> 16        -0.16103
      12 -> 14         0.58622
      12 -> 15         0.25123
      12 -> 18        -0.12116
      12 -> 19        -0.13061
      12 -> 21        -0.10057
 
 Excited state symmetry could not be determined.
 Excited State   6:      Singlet-?Sym    7.7885 eV  159.19 nm  f=0.0007  <S**2>=0.000
      11 -> 13        -0.10747
      11 -> 14         0.63831
      11 -> 15         0.18600
      11 -> 21        -0.15284
 
 Excited state symmetry could not be determined.
 Excited State   7:      Singlet-?Sym    7.9863 eV  155.25 nm  f=0.1134  <S**2>=0.000
      11 -> 16         0.13445
      12 -> 13        -0.34178
      12 -> 14        -0.17914
      12 -> 15         0.50236
      12 -> 18        -0.23171
 
 Excited state symmetry could not be determined.
 Excited State   8:      Singlet-?Sym    8.0390 eV  154.23 nm  f=0.0377  <S**2>=0.000
      11 -> 14        -0.17832
      11 -> 15         0.64039
      11 -> 18        -0.16359
      11 -> 23        -0.10793
 
 Excited state symmetry could not be determined.
 Excited State   9:      Singlet-?Sym    8.3858 eV  147.85 nm  f=0.0076  <S**2>=0.000
      12 -> 16         0.19331
      12 -> 17         0.66986
 
 Excited state symmetry could not be determined.
 Excited State  10:      Singlet-?Sym    8.6828 eV  142.79 nm  f=0.0064  <S**2>=0.000
      11 -> 16         0.28933
      11 -> 17         0.63523
 
 Excited state symmetry could not be determined.
 Excited State  11:      Singlet-?Sym    9.0330 eV  137.26 nm  f=0.0066  <S**2>=0.000
      12 -> 15         0.29463
      12 -> 18         0.61247
      12 -> 19         0.12520
 
 Excited state symmetry could not be determined.
 Excited State  12:      Singlet-?Sym    9.1128 eV  136.05 nm  f=0.0076  <S**2>=0.000
      11 -> 15         0.13499
      11 -> 18         0.65580
      11 -> 24         0.14675
 
 Excited state symmetry could not be determined.
 Excited State  13:      Singlet-?Sym    9.3222 eV  133.00 nm  f=0.0014  <S**2>=0.000
      12 -> 14         0.14982
      12 -> 18        -0.11067
      12 -> 19         0.64827
      12 -> 21        -0.10073
 
 Excited state symmetry could not be determined.
 Excited State  14:      Singlet-?Sym    9.3827 eV  132.14 nm  f=0.0115  <S**2>=0.000
      11 -> 13         0.11837
      11 -> 19         0.67057
 
 Excited state symmetry could not be determined.
 Excited State  15:      Singlet-?Sym    9.9732 eV  124.32 nm  f=0.0077  <S**2>=0.000
      12 -> 13         0.10389
      12 -> 14        -0.10627
      12 -> 20         0.57762
      12 -> 23         0.32350
      12 -> 24         0.10799
 
 Excited state symmetry could not be determined.
 Excited State  16:      Singlet-?Sym   10.1415 eV  122.25 nm  f=0.0014  <S**2>=0.000
       9 -> 16         0.64493
       9 -> 17        -0.18743
      11 -> 20         0.11274
      11 -> 23         0.12451
 
 Excited state symmetry could not be determined.
 Excited State  17:      Singlet-?Sym   10.2406 eV  121.07 nm  f=0.0082  <S**2>=0.000
       9 -> 16        -0.14596
      11 -> 13         0.14259
      11 -> 20         0.61702
      11 -> 21         0.16317
      11 -> 23         0.14752
 
 Excited state symmetry could not be determined.
 Excited State  18:      Singlet-?Sym   10.4822 eV  118.28 nm  f=0.0030  <S**2>=0.000
       9 -> 16        -0.10686
      11 -> 20        -0.15572
      11 -> 23         0.57145
      11 -> 24         0.24050
      11 -> 26        -0.13237
      12 -> 22         0.12950
 
 Excited state symmetry could not be determined.
 Excited State  19:      Singlet-?Sym   10.5065 eV  118.01 nm  f=0.0497  <S**2>=0.000
      11 -> 22        -0.20874
      12 -> 14         0.10823
      12 -> 20        -0.21045
      12 -> 21         0.39660
      12 -> 23         0.40132
      12 -> 24         0.21772
 
 Excited state symmetry could not be determined.
 Excited State  20:      Singlet-?Sym   10.5326 eV  117.72 nm  f=0.0096  <S**2>=0.000
      11 -> 14        -0.11893
      11 -> 20         0.12862
      11 -> 21        -0.34909
      11 -> 23        -0.10406
      12 -> 22         0.54700
      12 -> 25        -0.12297
 SavETr:  write IOETrn=   770 NScale= 10 NData=  16 NLR=1 LETran=     370.
 FoFJK:  IHMeth= 1 ICntrl=     0 DoSepK=T KAlg= 1 I1Cent= 0 FoldK=F
 FoFJK:  IHMeth= 1 ICntrl=     0 DoSepK=T KAlg= 1 I1Cent= 0 FoldK=F
          IDoAtm=111111
 NEqPCM:  Using equilibrium solvation (IEInf=0, Eps=  78.3553, EpsInf=   1.7778)
          Differentiating once with respect to electric field.
                with respect to dipole field.
          Differentiating once with respect to nuclear coordinates.
          There are     1 degrees of freedom in the 1st order CPHF.  IDoFFX=0.
 FoFJK:  IHMeth= 1 ICntrl=     0 DoSepK=T KAlg= 1 I1Cent= 0 FoldK=F
 LinEq1:  Iter=  0 NonCon=     1 RMS=3.91D-02 Max=6.46D-01
 AX will form     1 AO Fock derivatives at one time.
 FoFJK:  IHMeth= 1 ICntrl=     0 DoSepK=T KAlg= 1 I1Cent= 0 FoldK=F
 LinEq1:  Iter=  1 NonCon=     1 RMS=1.40D-02 Max=1.21D-01
 FoFJK:  IHMeth= 1 ICntrl=     0 DoSepK=T KAlg= 1 I1Cent= 0 FoldK=F
 LinEq1:  Iter=  2 NonCon=     1 RMS=7.88D-03 Max=1.37D-01
 FoFJK:  IHMeth= 1 ICntrl=     0 DoSepK=T KAlg= 1 I1Cent= 0 FoldK=F
 LinEq1:  Iter=  3 NonCon=     1 RMS=2.33D-03 Max=3.01D-02
 FoFJK:  IHMeth= 1 ICntrl=     0 DoSepK=T KAlg= 1 I1Cent= 0 FoldK=F
 LinEq1:  Iter=  4 NonCon=     1 RMS=1.40D-03 Max=1.76D-02
 FoFJK:  IHMeth= 1 ICntrl=     0 DoSepK=T KAlg= 1 I1Cent= 0 FoldK=F
 LinEq1:  Iter=  5 NonCon=     1 RMS=2.00D-04 Max=1.43D-03
 FoFJK:  IHMeth= 1 ICntrl=     0 DoSepK=T KAlg= 1 I1Cent= 0 FoldK=F
 LinEq1:  Iter=  6 NonCon=     1 RMS=3.83D-05 Max=2.85D-04
 FoFJK:  IHMeth= 1 ICntrl=     0 DoSepK=T KAlg= 1 I1Cent= 0 FoldK=F
 LinEq1:  Iter=  7 NonCon=     1 RMS=6.80D-06 Max=5.47D-05
 FoFJK:  IHMeth= 1 ICntrl=     0 DoSepK=T KAlg= 1 I1Cent= 0 FoldK=F
 LinEq1:  Iter=  8 NonCon=     1 RMS=1.02D-06 Max=1.06D-05
 FoFJK:  IHMeth= 1 ICntrl=     0 DoSepK=T KAlg= 1 I1Cent= 0 FoldK=F
 LinEq1:  Iter=  9 NonCon=     1 RMS=1.17D-07 Max=6.74D-07
 FoFJK:  IHMeth= 1 ICntrl=     0 DoSepK=T KAlg= 1 I1Cent= 0 FoldK=F
 LinEq1:  Iter= 10 NonCon=     1 RMS=2.22D-08 Max=1.64D-07
 FoFJK:  IHMeth= 1 ICntrl=     0 DoSepK=T KAlg= 1 I1Cent= 0 FoldK=F
 LinEq1:  Iter= 11 NonCon=     1 RMS=4.13D-09 Max=5.35D-08
 FoFJK:  IHMeth= 1 ICntrl=     0 DoSepK=T KAlg= 1 I1Cent= 0 FoldK=F
 LinEq1:  Iter= 12 NonCon=     1 RMS=7.19D-10 Max=7.27D-09
 FoFJK:  IHMeth= 1 ICntrl=     0 DoSepK=T KAlg= 1 I1Cent= 0 FoldK=F
 LinEq1:  Iter= 13 NonCon=     1 RMS=1.24D-10 Max=1.14D-09
 FoFJK:  IHMeth= 1 ICntrl=     0 DoSepK=T KAlg= 1 I1Cent= 0 FoldK=F
 LinEq1:  Iter= 14 NonCon=     0 RMS=2.17D-11 Max=2.16D-10
 Linear equations converged to 1.000D-10 1.000D-09 after    14 iterations.
 FoFJK:  IHMeth= 1 ICntrl=     0 DoSepK=T KAlg= 1 I1Cent= 0 FoldK=F
 End of Minotr Frequency-dependent properties file   721 does not exist.
 End of Minotr Frequency-dependent properties file   722 does not exist.

 **********************************************************************

            Population analysis using the SCF density.

 **********************************************************************

 Alpha  occ. eigenvalues --  -19.20592 -14.43921 -10.37654  -1.13251  -1.00140
 Alpha  occ. eigenvalues --   -0.70900  -0.63283  -0.56221  -0.49948  -0.49027
 Alpha  occ. eigenvalues --   -0.35108  -0.34314
 Alpha virt. eigenvalues --    0.01671   0.03328   0.04398   0.04944   0.07805
 Alpha virt. eigenvalues --    0.08200   0.09546   0.12744   0.14289   0.14951
 Alpha virt. eigenvalues --    0.15949   0.18128   0.20969   0.21113   0.21475
 Alpha virt. eigenvalues --    0.26157   0.27057   0.27879   0.29166   0.35807
 Alpha virt. eigenvalues --    0.35958   0.36487   0.39837   0.44236   0.45521
 Alpha virt. eigenvalues --    0.48141   0.49435   0.51473   0.54114   0.54574
 Alpha virt. eigenvalues --    0.55022   0.57584   0.58384   0.60579   0.66859
 Alpha virt. eigenvalues --    0.68992   0.72108   0.75272   0.80440   0.83460
 Alpha virt. eigenvalues --    0.86149   0.87232   0.91455   1.05604   1.07186
 Alpha virt. eigenvalues --    1.08786   1.12408   1.18207   1.22635   1.26539
 Alpha virt. eigenvalues --    1.30111   1.34930   1.42877   1.49236   1.49240
 Alpha virt. eigenvalues --    1.66239   1.69918   1.71600   1.76712   1.80636
 Alpha virt. eigenvalues --    1.83629   1.87524   2.00351   2.03408   2.05066
 Alpha virt. eigenvalues --    2.10199   2.14980   2.22047   2.22796   2.28727
 Alpha virt. eigenvalues --    2.46313   2.51524   2.55134   2.66073   2.69134
 Alpha virt. eigenvalues --    2.86876   3.02817   3.17882   3.31104   3.40263
 Alpha virt. eigenvalues --    3.45509   3.46312   3.71927   3.77736
          Condensed to atoms (all electrons):
              1          2          3          4          5          6
     1  C    4.808898   0.335984   0.326708  -0.192686  -0.131091   0.034611
     2  N    0.335984   5.856118  -0.065821   0.390049   0.349243  -0.027194
     3  O    0.326708  -0.065821   8.386466   0.001783  -0.002294  -0.092568
     4  H   -0.192686   0.390049   0.001783   1.048857  -0.216210   0.057068
     5  H   -0.131091   0.349243  -0.002294  -0.216210   1.054479  -0.010156
     6  H    0.034611  -0.027194  -0.092568   0.057068  -0.010156   1.330329
 Mulliken atomic charges:
              1
     1  C    0.817577
     2  N    0.161620
     3  O   -0.554274
     4  H   -0.088860
     5  H   -0.043972
     6  H   -0.292090
 Sum of Mulliken atomic charges =   0.00000
 Mulliken charges with hydrogens summed into heavy atoms:
              1
     1  C    0.525486
     2  N    0.028788
     3  O   -0.554274
 Sum of Mulliken charges with hydrogens summed into heavy atoms =   0.00000
 Electronic spatial extent (au):  <R**2>=            146.9405
 Charge=              0.0000 electrons
 Dipole moment (field-independent basis, Debye):
    X=              5.1238    Y=              1.2632    Z=              0.0005  Tot=              5.2772
 Quadrupole moment (field-independent basis, Debye-Ang):
   XX=            -18.5724   YY=            -15.2274   ZZ=            -19.2154
   XY=             -1.5257   XZ=              0.0002   YZ=             -0.0001
 Traceless Quadrupole moment (field-independent basis, Debye-Ang):
   XX=             -0.9007   YY=              2.4444   ZZ=             -1.5436
   XY=             -1.5257   XZ=              0.0002   YZ=             -0.0001
 Octapole moment (field-independent basis, Debye-Ang**2):
  XXX=             17.6895  YYY=             -0.6427  ZZZ=              0.0000  XYY=              3.9508
  XXY=              1.2891  XXZ=              0.0016  XZZ=             -0.7030  YZZ=              0.0247
  YYZ=              0.0003  XYZ=              0.0001
 Hexadecapole moment (field-independent basis, Debye-Ang**3):
 XXXX=           -115.0901 YYYY=            -33.8700 ZZZZ=            -19.6085 XXXY=              1.9779
 XXXZ=             -0.0015 YYYX=             -4.5769 YYYZ=             -0.0004 ZZZX=             -0.0036
 ZZZY=              0.0000 XXYY=            -24.0874 XXZZ=            -26.3725 YYZZ=            -10.2570
 XXYZ=              0.0002 YYXZ=             -0.0008 ZZXY=             -0.0017
 N-N= 7.116952588400D+01 E-N=-5.404459692202D+02  KE= 1.687833827230D+02
 D1PCM: PCM CHGder 1st derivatives, ID1Alg=3 FixD1E=F DoIter=F DoCFld=F I1PDM=6.
 Calling FoFJK, ICntrl=      5127 FMM=F ISym2X=0 I1Cent= 0 IOpClX= 0 NMat=1 NMatS=1 NMatT=0.
 FoFJK:  IHMeth= 1 ICntrl=  5127 DoSepK=T KAlg= 1 I1Cent= 0 FoldK=F
 -------------------------------------------------------------------
 Center     Atomic                   Forces (Hartrees/Bohr)
 Number     Number              X              Y              Z
 -------------------------------------------------------------------
      1        6           0.069906913    0.004310338   -0.000000478
      2        7          -0.033298894    0.001174530   -0.000003392
      3        8          -0.030129404   -0.008695165    0.000000220
      4        1          -0.000070254   -0.002729752    0.000000662
      5        1           0.005078746    0.008849637    0.000001999
      6        1          -0.011487107   -0.002909588    0.000000988
 -------------------------------------------------------------------
 Cartesian Forces:  Max     0.069906913 RMS     0.020070880

 GradGradGradGradGradGradGradGradGradGradGradGradGradGradGradGradGradGrad
 Berny optimization.
 Internal  Forces:  Max     0.030285996 RMS     0.012130820
 Search for a local minimum.
 Step number   1 out of a maximum of   25
 All quantities printed in internal units (Hartrees-Bohrs-Radians)
 Mixed Optimization -- RFO/linear search
 Second derivative matrix not updated -- first step.
 The second derivative matrix:
                          R1        R2        R3        R4        R5
           R1           0.56693
           R2           0.00000   0.92361
           R3           0.00000   0.00000   0.33098
           R4           0.00000   0.00000   0.00000   0.45754
           R5           0.00000   0.00000   0.00000   0.00000   0.46145
           A1           0.00000   0.00000   0.00000   0.00000   0.00000
           A2           0.00000   0.00000   0.00000   0.00000   0.00000
           A3           0.00000   0.00000   0.00000   0.00000   0.00000
           A4           0.00000   0.00000   0.00000   0.00000   0.00000
           A5           0.00000   0.00000   0.00000   0.00000   0.00000
           A6           0.00000   0.00000   0.00000   0.00000   0.00000
           D1           0.00000   0.00000   0.00000   0.00000   0.00000
           D2           0.00000   0.00000   0.00000   0.00000   0.00000
           D3           0.00000   0.00000   0.00000   0.00000   0.00000
           D4           0.00000   0.00000   0.00000   0.00000   0.00000
                          A1        A2        A3        A4        A5
           A1           0.25000
           A2           0.00000   0.16000
           A3           0.00000   0.00000   0.16000
           A4           0.00000   0.00000   0.00000   0.16000
           A5           0.00000   0.00000   0.00000   0.00000   0.16000
           A6           0.00000   0.00000   0.00000   0.00000   0.00000
           D1           0.00000   0.00000   0.00000   0.00000   0.00000
           D2           0.00000   0.00000   0.00000   0.00000   0.00000
           D3           0.00000   0.00000   0.00000   0.00000   0.00000
           D4           0.00000   0.00000   0.00000   0.00000   0.00000
                          A6        D1        D2        D3        D4
           A6           0.16000
           D1           0.00000   0.02455
           D2           0.00000   0.00000   0.02455
           D3           0.00000   0.00000   0.00000   0.02455
           D4           0.00000   0.00000   0.00000   0.00000   0.02455
     Eigenvalues ---    0.02455   0.02455   0.02455   0.16000   0.16000
     Eigenvalues ---    0.16000   0.22000   0.33098   0.45754   0.46145
     Eigenvalues ---    0.56693   0.923611000.000001000.000001000.00000
 RFO step:  Lambda=-4.79253667D-03 EMin= 2.45504600D-02
 Linear search not attempted -- first point.
 Iteration  1 RMS(Cart)=  0.02442452 RMS(Int)=  0.00078414
 Iteration  2 RMS(Cart)=  0.00085567 RMS(Int)=  0.00000014
 Iteration  3 RMS(Cart)=  0.00000020 RMS(Int)=  0.00000000
 Variable       Old X    -DE/DX   Delta X   Delta X   Delta X     New X
                                 (Linear)    (Quad)   (Total)
    R1        2.53658  -0.02879   0.00000  -0.05036  -0.05036   2.48621
    R2        2.31863   0.03029   0.00000   0.03262   0.03262   2.35126
    R3        2.08880  -0.00306   0.00000  -0.00911  -0.00911   2.07969
    R4        1.91109   0.00271   0.00000   0.00587   0.00587   1.91696
    R5        1.90668   0.00923   0.00000   0.01979   0.01979   1.92648
    A1        2.17634   0.00460   0.00000   0.02048   0.02048   2.19682
    A2        1.97993   0.00964   0.00000   0.06224   0.06224   2.04218
    A3        2.12692  -0.01425   0.00000  -0.08272  -0.08272   2.04419
    A4        2.09837   0.00229   0.00000   0.01389   0.01389   2.11225
    A5        2.10930  -0.00528   0.00000  -0.03202  -0.03202   2.07728
    A6        2.07552   0.00299   0.00000   0.01814   0.01814   2.09366
    D1       -0.00004   0.00000   0.00000   0.00004   0.00004   0.00000
    D2       -3.14155   0.00000   0.00000   0.00010   0.00010  -3.14145
    D3        3.14156   0.00000   0.00000  -0.00008  -0.00008   3.14148
    D4        0.00005   0.00000   0.00000  -0.00003  -0.00003   0.00003
         Item               Value     Threshold  Converged?
 Maximum Force            0.030286     0.000450     NO 
 RMS     Force            0.012131     0.000300     NO 
 Maximum Displacement     0.058418     0.001800     NO 
 RMS     Displacement     0.024659     0.001200     NO 
 Predicted change in Energy=-2.436511D-03
 GradGradGradGradGradGradGradGradGradGradGradGradGradGradGradGradGradGrad

                          Input orientation:                          
 ---------------------------------------------------------------------
 Center     Atomic      Atomic             Coordinates (Angstroms)
 Number     Number       Type             X           Y           Z
 ---------------------------------------------------------------------
      1          6           0       -0.117493    0.384913   -0.000044
      2          7           0        1.075447   -0.169907    0.000040
      3          8           0       -1.203724   -0.221893   -0.000057
      4          1           0        1.182902   -1.178612    0.000100
      5          1           0        1.899796    0.429861    0.000170
      6          1           0       -0.157158    1.484725    0.000007
 ---------------------------------------------------------------------
                    Distance matrix (angstroms):
                    1          2          3          4          5
     1  C    0.000000
     2  N    1.315648   0.000000
     3  O    1.244231   2.279763   0.000000
     4  H    2.033626   1.014412   2.571243   0.000000
     5  H    2.017789   1.019447   3.171217   1.760999   0.000000
     6  H    1.100527   2.063280   2.001960   2.981463   2.311666
                    6
     6  H    0.000000
 Symmetry turned off by external request.
 Stoichiometry    CH3NO
 Framework group  C1[X(CH3NO)]
 Deg. of freedom    12
 Full point group                 C1      NOp   1
 Rotational constants (GHZ):     74.6753976     11.3680919      9.8661362
 Standard basis: Aug-CC-pVDZ (5D, 7F)
 Integral buffers will be    131072 words long.
 Raffenetti 2 integral format.
 Two-electron integral symmetry is turned off.
    96 basis functions,   162 primitive gaussians,   102 cartesian basis functions
    12 alpha electrons       12 beta electrons
       nuclear repulsion energy        71.2097602095 Hartrees.
 NAtoms=    6 NActive=    6 NUniq=    6 SFac= 7.50D-01 NAtFMM=   80 NAOKFM=F Big=F
 Standard density basis: Auto (5D, 7F)
   327 Density fitting functions
 ------------------------------------------------------------------------------
 Polarizable Continuum Model (PCM)
 =================================
 Model                : PCM.
 Atomic radii         : UFF (Universal Force Field).
 Polarization charges : Total charges.
 Charge compensation  : None.
 Solution method      : Matrix inversion.
 Cavity type          : Scaled VdW (van der Waals Surface) (Alpha=1.100).
 Cavity algorithm     : GePol (No added spheres)
                        Default sphere list used, NSphG=    6.
                        Lebedev-Laikov grids with approx.  5.0 points / Ang**2.
                        Smoothing algorithm: Karplus/York (Gamma=1.0000).
                        Polarization charges: spherical gaussians, with
                                              point-specific exponents (IZeta= 3).
                        Self-potential: point-specific (ISelfS= 7).
                        Self-field    : sphere-specific E.n sum rule (ISelfD= 2).
 1st derivatives      : Analytical E(r).r(x)/FMM algorithm (CHGder, D1EAlg=3).
                        Cavity 1st derivative terms included.
 Solvent              : Water, Eps=  78.355300 Eps(inf)=   1.777849
 ------------------------------------------------------------------------------
 Spheres list:
 ISph  on   Nord    Re0     Alpha      Xe            Ye            Ze
    1   C      1    1.926   1.100     -0.117493      0.384913     -0.000044
    2   N      2    1.830   1.100      1.075447     -0.169907      0.000040
    3   O      3    1.750   1.100     -1.203724     -0.221893     -0.000057
    4   H      4    1.443   1.100      1.182902     -1.178612      0.000100
    5   H      5    1.443   1.100      1.899796      0.429861      0.000170
    6   H      6    1.443   1.100     -0.157158      1.484725      0.000007
 ------------------------------------------------------------------------------
 One-electron integrals computed using PRISM.
 NBasis=    96 RedAO= T  NBF=    96
 NBsUse=    96 1.00D-06 NBFU=    96
 Initial guess read from the read-write file.
 B after Tr=     0.000000    0.000000    0.000000
         Rot=    1.000000    0.000000    0.000000    0.000000 Ang=   0.00 deg.
 Harris functional with IExCor=20419 diagonalized for initial guess.
 ExpMin= 2.97D-02 ExpMax= 1.17D+04 ExpMxC= 4.01D+02 IAcc=3 IRadAn=         5 AccDes= 0.00D+00
 HarFok:  IExCor=20419 AccDes= 0.00D+00 IRadAn=         5 IDoV= 1
 ScaDFX=  1.000000  1.000000  1.000000  1.000000
 FoFCou: FMM=F IPFlag=           0 FMFlag=      100000 FMFlg1=           0
         NFxFlg=           0 DoJE=T BraDBF=F KetDBF=T FulRan=T
         Omega=  0.000000  0.000000  1.000000  0.000000  0.000000 ICntrl=     500 IOpCl=  0
         NMat0=    1 NMatS0=    1 NMatT0=    0 NMatD0=    1 NMtDS0=    0 NMtDT0=    0
         I1Cent=           4 NGrid=           0.
 Symmetry not used in FoFCou.
 Requested convergence on RMS density matrix=1.00D-08 within 128 cycles.
 Requested convergence on MAX density matrix=1.00D-06.
 Requested convergence on             energy=1.00D-06.
 No special actions if energy rises.
 FoFJK:  IHMeth= 1 ICntrl=     0 DoSepK=T KAlg= 1 I1Cent= 0 FoldK=F
 FoFJK:  IHMeth= 1 ICntrl=     0 DoSepK=T KAlg= 1 I1Cent= 0 FoldK=F
 FoFJK:  IHMeth= 1 ICntrl=     0 DoSepK=T KAlg= 1 I1Cent= 0 FoldK=F
 FoFJK:  IHMeth= 1 ICntrl=     0 DoSepK=T KAlg= 1 I1Cent= 0 FoldK=F
 FoFJK:  IHMeth= 1 ICntrl=     0 DoSepK=T KAlg= 1 I1Cent= 0 FoldK=F
 FoFJK:  IHMeth= 1 ICntrl=     0 DoSepK=T KAlg= 1 I1Cent= 0 FoldK=F
 FoFJK:  IHMeth= 1 ICntrl=     0 DoSepK=T KAlg= 1 I1Cent= 0 FoldK=F
 FoFJK:  IHMeth= 1 ICntrl=     0 DoSepK=T KAlg= 1 I1Cent= 0 FoldK=F
 FoFJK:  IHMeth= 1 ICntrl=     0 DoSepK=T KAlg= 1 I1Cent= 0 FoldK=F
 FoFJK:  IHMeth= 1 ICntrl=     0 DoSepK=T KAlg= 1 I1Cent= 0 FoldK=F
 Error on total polarization charges =  0.01065
 SCF Done:  E(RCAM-B3LYP) =  -169.862483654     A.U. after   10 cycles
             Convg  =    0.8864D-08             -V/T =  2.0064
 ExpMin= 2.97D-02 ExpMax= 1.17D+04 ExpMxC= 4.01D+02 IAcc=3 IRadAn=         5 AccDes= 0.00D+00
 HarFok:  IExCor=  205 AccDes= 0.00D+00 IRadAn=         5 IDoV=-2
 ScaDFX=  1.000000  1.000000  1.000000  1.000000
 Range of M.O.s used for correlation:     4    96
 NBasis=    96 NAE=    12 NBE=    12 NFC=     3 NFV=     0
 NROrb=     93 NOA=     9 NOB=     9 NVA=    84 NVB=    84

 **** Warning!!: The largest alpha MO coefficient is  0.19455058D+02

 NEqPCM:  Using equilibrium solvation (IEInf=0, Eps=  78.3553, EpsInf=   1.7778)
 Generating guess from densities on rwf.
 Convergence on wavefunction:    0.000001000000000
 Iteration     1 Dimension    40 NMult    40
 CISAX will form    40 AO SS matrices at one time.
 FoFJK:  IHMeth= 1 ICntrl=     0 DoSepK=T KAlg= 1 I1Cent= 0 FoldK=F
 FoFJK:  IHMeth= 1 ICntrl=     0 DoSepK=T KAlg= 1 I1Cent= 0 FoldK=F
 New state     18 was old state     19
 New state     19 was old state     20
 New state     20 was old state     18
 Iteration     2 Dimension    80 NMult    80
 FoFJK:  IHMeth= 1 ICntrl=     0 DoSepK=T KAlg= 1 I1Cent= 0 FoldK=F
 FoFJK:  IHMeth= 1 ICntrl=     0 DoSepK=T KAlg= 1 I1Cent= 0 FoldK=F
 Iteration     3 Dimension   120 NMult   120
 FoFJK:  IHMeth= 1 ICntrl=     0 DoSepK=T KAlg= 1 I1Cent= 0 FoldK=F
 FoFJK:  IHMeth= 1 ICntrl=     0 DoSepK=T KAlg= 1 I1Cent= 0 FoldK=F
 Iteration     4 Dimension   160 NMult   160
 FoFJK:  IHMeth= 1 ICntrl=     0 DoSepK=T KAlg= 1 I1Cent= 0 FoldK=F
 FoFJK:  IHMeth= 1 ICntrl=     0 DoSepK=T KAlg= 1 I1Cent= 0 FoldK=F
 Iteration     5 Dimension   200 NMult   200
 FoFJK:  IHMeth= 1 ICntrl=     0 DoSepK=T KAlg= 1 I1Cent= 0 FoldK=F
 FoFJK:  IHMeth= 1 ICntrl=     0 DoSepK=T KAlg= 1 I1Cent= 0 FoldK=F
 Iteration     6 Dimension   240 NMult   240
 FoFJK:  IHMeth= 1 ICntrl=     0 DoSepK=T KAlg= 1 I1Cent= 0 FoldK=F
 FoFJK:  IHMeth= 1 ICntrl=     0 DoSepK=T KAlg= 1 I1Cent= 0 FoldK=F
 Iteration     7 Dimension   272 NMult   272
 FoFJK:  IHMeth= 1 ICntrl=     0 DoSepK=T KAlg= 1 I1Cent= 0 FoldK=F
 FoFJK:  IHMeth= 1 ICntrl=     0 DoSepK=T KAlg= 1 I1Cent= 0 FoldK=F
 Iteration     8 Dimension   282 NMult   282
 FoFJK:  IHMeth= 1 ICntrl=     0 DoSepK=T KAlg= 1 I1Cent= 0 FoldK=F
 FoFJK:  IHMeth= 1 ICntrl=     0 DoSepK=T KAlg= 1 I1Cent= 0 FoldK=F
 Iteration     9 Dimension   292 NMult   292
 FoFJK:  IHMeth= 1 ICntrl=     0 DoSepK=T KAlg= 1 I1Cent= 0 FoldK=F
 FoFJK:  IHMeth= 1 ICntrl=     0 DoSepK=T KAlg= 1 I1Cent= 0 FoldK=F
 Iteration    10 Dimension   294 NMult   294
 FoFJK:  IHMeth= 1 ICntrl=     0 DoSepK=T KAlg= 1 I1Cent= 0 FoldK=F
 FoFJK:  IHMeth= 1 ICntrl=     0 DoSepK=T KAlg= 1 I1Cent= 0 FoldK=F
 Iteration    11 Dimension   296 NMult   296
 FoFJK:  IHMeth= 1 ICntrl=     0 DoSepK=T KAlg= 1 I1Cent= 0 FoldK=F
 FoFJK:  IHMeth= 1 ICntrl=     0 DoSepK=T KAlg= 1 I1Cent= 0 FoldK=F
 ***********************************************************************
 Excited states from <AA,BB:AA,BB> singles matrix:
 ***********************************************************************
 
 Ground to excited state transition electric dipole moments (Au):
       state          X           Y           Z        Dip. S.      Osc.
         1         0.0000      0.0000      0.0763      0.0058      0.0008
         2        -0.0972      0.1785      0.0000      0.0413      0.0069
         3         0.0003      0.0000      0.2159      0.0466      0.0081
         4         1.2409      0.2232      0.0000      1.5897      0.2829
         5        -0.5583      0.8123      0.0000      0.9715      0.1797
         6         0.0000     -0.0001      0.1161      0.0135      0.0026
         7         0.8357      0.2431     -0.0001      0.7576      0.1459
         8        -0.0002     -0.0001     -0.4773      0.2278      0.0448
         9         0.0000      0.0000      0.1966      0.0387      0.0078
        10        -0.1454     -0.0332      0.0000      0.0222      0.0047
        11         0.0946     -0.1222      0.0000      0.0239      0.0052
        12         0.0000      0.0000      0.1775      0.0315      0.0070
        13        -0.0251     -0.0119      0.0000      0.0008      0.0002
        14         0.0000      0.0000     -0.1833      0.0336      0.0077
        15         0.1768      0.0752      0.0000      0.0369      0.0089
        16         0.0001      0.0000     -0.0226      0.0005      0.0001
        17         0.0001     -0.0001     -0.1371      0.0188      0.0047
        18        -0.1477     -0.3808     -0.0001      0.1668      0.0424
        19         0.0000      0.0000      0.1674      0.0280      0.0071
        20        -0.0001      0.0003     -0.1618      0.0262      0.0067
 Ground to excited state transition velocity dipole moments (Au):
       state          X           Y           Z        Dip. S.      Osc.
         1         0.0000      0.0000     -0.0196      0.0004      0.0012
         2         0.0255     -0.0460      0.0000      0.0028      0.0073
         3        -0.0001      0.0000     -0.0540      0.0029      0.0075
         4        -0.3253     -0.0578      0.0000      0.1092      0.2727
         5         0.1534     -0.2220      0.0000      0.0728      0.1750
         6         0.0000      0.0000     -0.0336      0.0011      0.0026
         7        -0.2390     -0.0688      0.0000      0.0618      0.1427
         8         0.0001      0.0000      0.1368      0.0187      0.0423
         9         0.0000      0.0000     -0.0613      0.0038      0.0083
        10         0.0374      0.0079      0.0000      0.0015      0.0031
        11        -0.0292      0.0385      0.0000      0.0023      0.0048
        12         0.0000      0.0000     -0.0568      0.0032      0.0064
        13        -0.0027      0.0041      0.0000      0.0000      0.0000
        14         0.0000      0.0000      0.0635      0.0040      0.0078
        15        -0.0627     -0.0215      0.0000      0.0044      0.0081
        16         0.0000      0.0000      0.0098      0.0001      0.0002
        17         0.0000      0.0000      0.0557      0.0031      0.0055
        18         0.0529      0.1475      0.0000      0.0246      0.0429
        19         0.0000      0.0000     -0.0641      0.0041      0.0072
        20         0.0001     -0.0001      0.0512      0.0026      0.0045
 Ground to excited state transition magnetic dipole moments (Au):
       state          X           Y           Z
         1        -0.9716     -0.3226      0.0000
         2         0.0001      0.0001      0.5115
         3         0.0055      0.5760     -0.0001
         4         0.0000     -0.0001      0.2503
         5         0.0000      0.0000     -0.1661
         6         0.0540     -0.0166      0.0000
         7         0.0000      0.0001      0.5185
         8        -0.0319      0.3066     -0.0001
         9        -0.0550      0.1097      0.0000
        10         0.0000      0.0000      0.0891
        11         0.0000     -0.0001      0.0122
        12         0.0982     -0.2780      0.0000
        13         0.0000     -0.0001      0.2086
        14        -0.0908     -0.5138      0.0000
        15        -0.0001      0.0000     -0.3842
        16        -0.9659      0.9516      0.0000
        17         0.0935     -0.5291      0.0001
        18         0.0001     -0.0003     -0.0063
        19         0.0200     -0.2327      0.0000
        20         0.1069     -0.4538      0.0000
 <0|del|b> * <b|rxdel|0> + <0|del|b> * <b|delr+rdel|0>
 Rotatory Strengths (R) in cgs (10**-40 erg-esu-cm/Gauss)
       state          XX          YY          ZZ    R(velocity)
         1         0.0038      0.0062      0.0084      0.0061
 Total R(velocity) tensor for State=          1
                 1             2             3 
      1   0.376637D-02 -0.186838D-02  0.000000D+00
      2  -0.153777D-01  0.623382D-02  0.000000D+00
      3  -0.273878D+02 -0.104394D+02  0.840119D-02
         2        -0.0210      0.0015     -0.0014     -0.0070
 Total R(velocity) tensor for State=          2
                 1             2             3 
      1  -0.210480D-01 -0.104918D-01 -0.110983D+02
      2   0.285754D-02  0.148100D-02  0.979433D+00
      3   0.584547D+01  0.324466D+01 -0.139573D-02
         3         0.0145     -0.0014      0.0025      0.0052
 Total R(velocity) tensor for State=          3
                 1             2             3 
      1   0.144836D-01  0.107573D+00 -0.675727D-05
      2   0.772360D-02 -0.141718D-02 -0.971393D-05
      3  -0.133034D+01  0.818059D+01  0.249817D-02
         4         0.0187     -0.0240     -0.0150     -0.0068
 Total R(velocity) tensor for State=          4
                 1             2             3 
      1   0.187255D-01 -0.100834D+00  0.148831D+03
      2   0.406546D-02 -0.240353D-01 -0.367149D+02
      3  -0.185812D+01  0.104643D+02 -0.149792D-01
         5        -0.0144      0.0005     -0.0009     -0.0050
 Total R(velocity) tensor for State=          5
                 1             2             3 
      1  -0.144488D-01 -0.973195D-02  0.376643D+02
      2   0.487705D-03  0.513522D-03  0.258459D+02
      3   0.189683D+02  0.131134D+02 -0.926367D-03
         6        -0.0033     -0.0009      0.0005     -0.0013
 Total R(velocity) tensor for State=          6
                 1             2             3 
      1  -0.330919D-02 -0.151221D-02 -0.157394D-05
      2  -0.508086D-02 -0.904563D-03 -0.129575D-05
      3  -0.923810D+00  0.719693D+00  0.463647D-03
         7         0.0022      0.0120      0.0073      0.0071
 Total R(velocity) tensor for State=          7
                 1             2             3 
      1   0.217296D-02  0.515002D-01  0.241923D+03
      2  -0.447363D-02  0.120079D-01 -0.144676D+02
      3  -0.563214D+01  0.195631D+02  0.725196D-02
         8        -0.0204     -0.0139      0.0027     -0.0105
 Total R(velocity) tensor for State=          8
                 1             2             3 
      1  -0.204078D-01 -0.342197D-01  0.140994D-04
      2   0.551297D-02 -0.138908D-01  0.000000D+00
      3   0.595414D+01 -0.291718D+02  0.267183D-02
         9         0.0030      0.0008     -0.0009      0.0009
 Total R(velocity) tensor for State=          9
                 1             2             3 
      1   0.298514D-02 -0.189933D-02  0.000000D+00
      2  -0.105614D-02  0.802028D-03  0.000000D+00
      3  -0.416165D+01  0.131864D+00 -0.937362D-03
        10        -0.0012      0.0015      0.0006      0.0003
 Total R(velocity) tensor for State=         10
                 1             2             3 
      1  -0.122850D-02 -0.113354D-02 -0.884471D+01
      2  -0.554679D-03  0.154953D-02 -0.135883D+01
      3  -0.752180D+00  0.354296D+01  0.596159D-03
        11        -0.0009     -0.0027     -0.0005     -0.0014
 Total R(velocity) tensor for State=         11
                 1             2             3 
      1  -0.890421D-03 -0.480284D-02 -0.138849D+02
      2  -0.438113D-02 -0.267333D-02  0.220595D+01
      3   0.967288D+00  0.734970D+00 -0.521760D-03
        12        -0.0010     -0.0006      0.0000     -0.0005
 Total R(velocity) tensor for State=         12
                 1             2             3 
      1  -0.992446D-03 -0.651192D-02  0.110321D-05
      2   0.606983D-02 -0.624741D-03 -0.120728D-05
      3  -0.129190D+01  0.192063D+01  0.121326D-04
        13         0.0026      0.0034     -0.0002      0.0019
 Total R(velocity) tensor for State=         13
                 1             2             3 
      1   0.262178D-02 -0.142307D-03  0.490586D+00
      2  -0.238271D-02  0.344089D-02 -0.131319D+01
      3   0.641299D+00  0.423357D+00 -0.234091D-03
        14         0.0032     -0.0026      0.0030      0.0012
 Total R(velocity) tensor for State=         14
                 1             2             3 
      1   0.318770D-02 -0.521822D-03  0.000000D+00
      2   0.176406D-02 -0.262319D-02  0.000000D+00
      3   0.143733D+02  0.292634D+02  0.300966D-02
        15        -0.0008      0.0028      0.0007      0.0009
 Total R(velocity) tensor for State=         15
                 1             2             3 
      1  -0.823003D-03 -0.407874D-02 -0.203810D+02
      2  -0.683747D-03  0.277434D-02  0.246259D+01
      3  -0.146431D+01  0.426570D+01  0.657931D-03
        16        -0.0019      0.0407      0.0198      0.0195
 Total R(velocity) tensor for State=         16
                 1             2             3 
      1  -0.191787D-02  0.361201D-01  0.000000D+00
      2  -0.245165D-02  0.407302D-01  0.000000D+00
      3   0.625276D+01 -0.743098D+01  0.197609D-01
        17        -0.0136      0.0054     -0.0096     -0.0060
 Total R(velocity) tensor for State=         17
                 1             2             3 
      1  -0.136332D-01 -0.137446D-01  0.000000D+00
      2   0.222081D-02  0.535508D-02 -0.130740D-05
      3  -0.148186D+02  0.839622D+01 -0.958883D-02
        18        -0.0586     -0.0057     -0.0141     -0.0261
 Total R(velocity) tensor for State=         18
                 1             2             3 
      1  -0.586296D-01  0.321683D-01 -0.428473D+02
      2   0.235881D-01 -0.569112D-02 -0.106718D+02
      3   0.385570D+02 -0.138345D+02 -0.140613D-01
        19         0.0008      0.0003     -0.0005      0.0002
 Total R(velocity) tensor for State=         19
                 1             2             3 
      1   0.823946D-03  0.417916D-02  0.000000D+00
      2   0.540755D-02  0.333483D-03  0.000000D+00
      3   0.749945D+01 -0.142377D+02 -0.466562D-03
        20         0.0772      0.0064      0.0355      0.0397
 Total R(velocity) tensor for State=         20
                 1             2             3 
      1   0.771695D-01  0.313516D-01  0.000000D+00
      2  -0.193030D-01  0.642803D-02  0.364312D-04
      3  -0.933474D+01  0.100830D+02  0.354889D-01
 1/2[<0|r|b>*<b|rxdel|0> + (<0|rxdel|b>*<b|r|0>)*]
 Rotatory Strengths (R) in cgs (10**-40 erg-esu-cm/Gauss)
       state          XX          YY          ZZ     R(length)     R(au)
         1         0.0113      0.0086     -0.0001      0.0066      0.0000
         2         0.0036     -0.0172     -0.0081     -0.0072      0.0000
         3        -0.0010      0.0079      0.0081      0.0050      0.0000
         4        -0.0378      0.0161      0.0016     -0.0067      0.0000
         5         0.0010     -0.0154     -0.0007     -0.0051      0.0000
         6         0.0006     -0.0011     -0.0031     -0.0012      0.0000
         7         0.0165     -0.0165      0.0228      0.0076      0.0000
         8        -0.0042      0.0178     -0.0462     -0.0109      0.0000
         9        -0.0019      0.0018      0.0030      0.0010      0.0000
        10         0.0027     -0.0001     -0.0012      0.0005      0.0000
        11         0.0005     -0.0045     -0.0003     -0.0014      0.0000
        12        -0.0028      0.0049     -0.0038     -0.0006      0.0000
        13        -0.0004     -0.0011      0.0066      0.0017      0.0000
        14         0.0007      0.0054     -0.0027      0.0011      0.0000
        15         0.0079      0.0000     -0.0053      0.0009      0.0000
        16         0.0604     -0.0029      0.0001      0.0192      0.0000
        17        -0.0039     -0.0234      0.0085     -0.0063      0.0000
        18         0.0083     -0.0844     -0.0005     -0.0256     -0.0001
        19        -0.0003      0.0013     -0.0002      0.0003      0.0000
        20         0.0097      0.1084     -0.0011      0.0390      0.0001
  1/2[<0|del|b>*<b|r|0> + (<0|r|b>*<b|del|0>)*] (Au)
       state          X           Y           Z        Dip. S.   Osc.(frdel)
         1         0.0000      0.0000     -0.0015      0.0015      0.0010
         2        -0.0025     -0.0082      0.0000      0.0107      0.0071
         3         0.0000      0.0000     -0.0117      0.0117      0.0078
         4        -0.4037     -0.0129      0.0000      0.4166      0.2777
         5        -0.0857     -0.1803      0.0000      0.2660      0.1773
         6         0.0000      0.0000     -0.0039      0.0039      0.0026
         7        -0.1997     -0.0167      0.0000      0.2165      0.1443
         8         0.0000      0.0000     -0.0653      0.0653      0.0435
         9         0.0000      0.0000     -0.0121      0.0121      0.0080
        10        -0.0054     -0.0003      0.0000      0.0057      0.0038
        11        -0.0028     -0.0047      0.0000      0.0075      0.0050
        12         0.0000      0.0000     -0.0101      0.0101      0.0067
        13         0.0001      0.0000      0.0000      0.0000      0.0000
        14         0.0000      0.0000     -0.0116      0.0116      0.0078
        15        -0.0111     -0.0016      0.0000      0.0127      0.0085
        16         0.0000      0.0000     -0.0002      0.0002      0.0001
        17         0.0000      0.0000     -0.0076      0.0076      0.0051
        18        -0.0078     -0.0562      0.0000      0.0640      0.0427
        19         0.0000      0.0000     -0.0107      0.0107      0.0072
        20         0.0000      0.0000     -0.0083      0.0083      0.0055
 Ground to excited state transition densities written to RWF  633

 Excitation energies and oscillator strengths:
 
 Excited state symmetry could not be determined.
 Excited State   1:      Singlet-?Sym    5.6882 eV  217.97 nm  f=0.0008  <S**2>=0.000
      12 -> 16         0.67091
      12 -> 17        -0.20114
 
 Excited state symmetry could not be determined.
 Excited State   2:      Singlet-?Sym    6.8396 eV  181.27 nm  f=0.0069  <S**2>=0.000
      11 -> 16         0.14585
      12 -> 13         0.59328
      12 -> 14        -0.11839
      12 -> 15         0.25869
      12 -> 18         0.13024
      12 -> 20        -0.11629
 This state for optimization and/or second-order correction.
 Copying the excited state density for this state as the 1-particle RhoCI density.
 
 Excited state symmetry could not be determined.
 Excited State   3:      Singlet-?Sym    7.0685 eV  175.40 nm  f=0.0081  <S**2>=0.000
      11 -> 13         0.66650
      11 -> 19        -0.13621
      11 -> 20        -0.13081
 
 Excited state symmetry could not be determined.
 Excited State   4:      Singlet-?Sym    7.2629 eV  170.71 nm  f=0.2829  <S**2>=0.000
      11 -> 16         0.51189
      11 -> 17        -0.23378
      12 -> 14         0.36102
      12 -> 19        -0.14558
 
 Excited state symmetry could not be determined.
 Excited State   5:      Singlet-?Sym    7.5492 eV  164.23 nm  f=0.1797  <S**2>=0.000
      11 -> 16        -0.26554
      11 -> 17         0.14301
      12 -> 14         0.51215
      12 -> 15         0.30032
      12 -> 18         0.15329
 
 Excited state symmetry could not be determined.
 Excited State   6:      Singlet-?Sym    7.7803 eV  159.36 nm  f=0.0026  <S**2>=0.000
      11 -> 14         0.65045
      11 -> 15         0.13579
      11 -> 21        -0.15506
 
 Excited state symmetry could not be determined.
 Excited State   7:      Singlet-?Sym    7.8615 eV  157.71 nm  f=0.1459  <S**2>=0.000
      11 -> 16         0.17944
      11 -> 17        -0.12719
      12 -> 13        -0.34495
      12 -> 14        -0.19329
      12 -> 15         0.47788
      12 -> 18         0.22255
 
 Excited state symmetry could not be determined.
 Excited State   8:      Singlet-?Sym    8.0280 eV  154.44 nm  f=0.0448  <S**2>=0.000
      11 -> 14        -0.12821
      11 -> 15         0.64818
      11 -> 18         0.17883
      11 -> 23        -0.10896
 
 Excited state symmetry could not be determined.
 Excited State   9:      Singlet-?Sym    8.2460 eV  150.36 nm  f=0.0078  <S**2>=0.000
      12 -> 16         0.19626
      12 -> 17         0.66820
 
 Excited state symmetry could not be determined.
 Excited State  10:      Singlet-?Sym    8.6714 eV  142.98 nm  f=0.0047  <S**2>=0.000
      11 -> 16         0.29619
      11 -> 17         0.62906
 
 Excited state symmetry could not be determined.
 Excited State  11:      Singlet-?Sym    8.8937 eV  139.41 nm  f=0.0052  <S**2>=0.000
      12 -> 15         0.29734
      12 -> 18        -0.60893
      12 -> 19         0.13418
 
 Excited state symmetry could not be determined.
 Excited State  12:      Singlet-?Sym    9.1305 eV  135.79 nm  f=0.0070  <S**2>=0.000
      11 -> 15         0.15304
      11 -> 18        -0.65039
      11 -> 24         0.13357
 
 Excited state symmetry could not be determined.
 Excited State  13:      Singlet-?Sym    9.2126 eV  134.58 nm  f=0.0002  <S**2>=0.000
      11 -> 16         0.10001
      12 -> 14         0.14856
      12 -> 18         0.11402
      12 -> 19         0.64134
      12 -> 23         0.10455
 
 Excited state symmetry could not be determined.
 Excited State  14:      Singlet-?Sym    9.3830 eV  132.14 nm  f=0.0077  <S**2>=0.000
      11 -> 13         0.11556
      11 -> 19         0.66698
 
 Excited state symmetry could not be determined.
 Excited State  15:      Singlet-?Sym    9.8524 eV  125.84 nm  f=0.0089  <S**2>=0.000
      12 -> 13         0.10831
      12 -> 14        -0.12008
      12 -> 20         0.58486
      12 -> 23         0.30382
 
 Excited state symmetry could not be determined.
 Excited State  16:      Singlet-?Sym    9.9626 eV  124.45 nm  f=0.0001  <S**2>=0.000
       9 -> 16         0.66256
       9 -> 17        -0.19749
 
 Excited state symmetry could not be determined.
 Excited State  17:      Singlet-?Sym   10.2455 eV  121.01 nm  f=0.0047  <S**2>=0.000
      11 -> 13         0.14642
      11 -> 20         0.63376
      11 -> 21         0.13124
      11 -> 23         0.16292
 
 Excited state symmetry could not be determined.
 Excited State  18:      Singlet-?Sym   10.3823 eV  119.42 nm  f=0.0424  <S**2>=0.000
      11 -> 22        -0.14147
      12 -> 14         0.10245
      12 -> 20        -0.17660
      12 -> 21         0.42385
      12 -> 23         0.41662
      12 -> 24         0.21004
      12 -> 27        -0.11610
 
 Excited state symmetry could not be determined.
 Excited State  19:      Singlet-?Sym   10.4109 eV  119.09 nm  f=0.0071  <S**2>=0.000
      11 -> 23         0.13788
      12 -> 22         0.65651
      12 -> 26        -0.15560
 
 Excited state symmetry could not be determined.
 Excited State  20:      Singlet-?Sym   10.4563 eV  118.57 nm  f=0.0067  <S**2>=0.000
      11 -> 20        -0.16297
      11 -> 23         0.56509
      11 -> 24         0.23945
      11 -> 25        -0.13234
      12 -> 22        -0.15258
 SavETr:  write IOETrn=   770 NScale= 10 NData=  16 NLR=1 LETran=     370.
 FoFJK:  IHMeth= 1 ICntrl=     0 DoSepK=T KAlg= 1 I1Cent= 0 FoldK=F
 FoFJK:  IHMeth= 1 ICntrl=     0 DoSepK=T KAlg= 1 I1Cent= 0 FoldK=F
          IDoAtm=111111
 NEqPCM:  Using equilibrium solvation (IEInf=0, Eps=  78.3553, EpsInf=   1.7778)
          Differentiating once with respect to electric field.
                with respect to dipole field.
          Differentiating once with respect to nuclear coordinates.
          There are     1 degrees of freedom in the 1st order CPHF.  IDoFFX=0.
 FoFJK:  IHMeth= 1 ICntrl=     0 DoSepK=T KAlg= 1 I1Cent= 0 FoldK=F
 LinEq1:  Iter=  0 NonCon=     1 RMS=4.30D-02 Max=7.51D-01
 AX will form     1 AO Fock derivatives at one time.
 FoFJK:  IHMeth= 1 ICntrl=     0 DoSepK=T KAlg= 1 I1Cent= 0 FoldK=F
 LinEq1:  Iter=  1 NonCon=     1 RMS=1.52D-02 Max=1.25D-01
 FoFJK:  IHMeth= 1 ICntrl=     0 DoSepK=T KAlg= 1 I1Cent= 0 FoldK=F
 LinEq1:  Iter=  2 NonCon=     1 RMS=8.20D-03 Max=1.41D-01
 FoFJK:  IHMeth= 1 ICntrl=     0 DoSepK=T KAlg= 1 I1Cent= 0 FoldK=F
 LinEq1:  Iter=  3 NonCon=     1 RMS=2.23D-03 Max=2.61D-02
 FoFJK:  IHMeth= 1 ICntrl=     0 DoSepK=T KAlg= 1 I1Cent= 0 FoldK=F
 LinEq1:  Iter=  4 NonCon=     1 RMS=1.40D-03 Max=1.68D-02
 FoFJK:  IHMeth= 1 ICntrl=     0 DoSepK=T KAlg= 1 I1Cent= 0 FoldK=F
 LinEq1:  Iter=  5 NonCon=     1 RMS=2.30D-04 Max=1.53D-03
 FoFJK:  IHMeth= 1 ICntrl=     0 DoSepK=T KAlg= 1 I1Cent= 0 FoldK=F
 LinEq1:  Iter=  6 NonCon=     1 RMS=4.44D-05 Max=2.95D-04
 FoFJK:  IHMeth= 1 ICntrl=     0 DoSepK=T KAlg= 1 I1Cent= 0 FoldK=F
 LinEq1:  Iter=  7 NonCon=     1 RMS=7.90D-06 Max=5.78D-05
 FoFJK:  IHMeth= 1 ICntrl=     0 DoSepK=T KAlg= 1 I1Cent= 0 FoldK=F
 LinEq1:  Iter=  8 NonCon=     1 RMS=1.13D-06 Max=9.81D-06
 FoFJK:  IHMeth= 1 ICntrl=     0 DoSepK=T KAlg= 1 I1Cent= 0 FoldK=F
 LinEq1:  Iter=  9 NonCon=     1 RMS=1.31D-07 Max=1.32D-06
 FoFJK:  IHMeth= 1 ICntrl=     0 DoSepK=T KAlg= 1 I1Cent= 0 FoldK=F
 LinEq1:  Iter= 10 NonCon=     1 RMS=2.28D-08 Max=2.04D-07
 FoFJK:  IHMeth= 1 ICntrl=     0 DoSepK=T KAlg= 1 I1Cent= 0 FoldK=F
 LinEq1:  Iter= 11 NonCon=     1 RMS=4.66D-09 Max=3.36D-08
 FoFJK:  IHMeth= 1 ICntrl=     0 DoSepK=T KAlg= 1 I1Cent= 0 FoldK=F
 LinEq1:  Iter= 12 NonCon=     1 RMS=8.38D-10 Max=7.29D-09
 FoFJK:  IHMeth= 1 ICntrl=     0 DoSepK=T KAlg= 1 I1Cent= 0 FoldK=F
 LinEq1:  Iter= 13 NonCon=     1 RMS=1.42D-10 Max=1.50D-09
 FoFJK:  IHMeth= 1 ICntrl=     0 DoSepK=T KAlg= 1 I1Cent= 0 FoldK=F
 LinEq1:  Iter= 14 NonCon=     0 RMS=2.52D-11 Max=2.49D-10
 Linear equations converged to 1.000D-10 1.000D-09 after    14 iterations.
 FoFJK:  IHMeth= 1 ICntrl=     0 DoSepK=T KAlg= 1 I1Cent= 0 FoldK=F
 End of Minotr Frequency-dependent properties file   721 does not exist.
 End of Minotr Frequency-dependent properties file   722 does not exist.
 D1PCM: PCM CHGder 1st derivatives, ID1Alg=3 FixD1E=F DoIter=F DoCFld=F I1PDM=6.
 Calling FoFJK, ICntrl=      5127 FMM=F ISym2X=0 I1Cent= 0 IOpClX= 0 NMat=1 NMatS=1 NMatT=0.
[...]
 Excited State  10:      Singlet-?Sym    8.6919 eV  142.64 nm  f=0.0036  <S**2>=0.000
      11 -> 16        -0.31148
      11 -> 17        -0.61469
      12 -> 19        -0.10416
 
 Excited state symmetry could not be determined.
 Excited State  11:      Singlet-?Sym    8.7569 eV  141.58 nm  f=0.0042  <S**2>=0.000
      12 -> 15         0.30121
      12 -> 18        -0.60997
      12 -> 19         0.11823
 
 Excited state symmetry could not be determined.
 Excited State  12:      Singlet-?Sym    9.1036 eV  136.19 nm  f=0.0004  <S**2>=0.000
      11 -> 16        -0.13143
      12 -> 14         0.14380
      12 -> 19         0.63500
      12 -> 21        -0.10047
      12 -> 23         0.11450
 
 Excited state symmetry could not be determined.
 Excited State  13:      Singlet-?Sym    9.1722 eV  135.17 nm  f=0.0067  <S**2>=0.000
      11 -> 15        -0.16458
      11 -> 18         0.64597
      11 -> 24        -0.11697
 
 Excited state symmetry could not be determined.
 Excited State  14:      Singlet-?Sym    9.4191 eV  131.63 nm  f=0.0062  <S**2>=0.000
      11 -> 13        -0.11275
      11 -> 19        -0.66220
      11 -> 21         0.10128
 
 Excited state symmetry could not be determined.
 Excited State  15:      Singlet-?Sym    9.7118 eV  127.66 nm  f=0.0114  <S**2>=0.000
      12 -> 13         0.11516
      12 -> 14        -0.13413
      12 -> 20         0.60099
      12 -> 21        -0.11375
      12 -> 23         0.25761
 
 Excited state symmetry could not be determined.
 Excited State  16:      Singlet-?Sym    9.8778 eV  125.52 nm  f=0.0000  <S**2>=0.000
      10 -> 16         0.65895
      10 -> 17        -0.21477
 
 Excited state symmetry could not be determined.
 Excited State  17:      Singlet-?Sym   10.2662 eV  120.77 nm  f=0.0017  <S**2>=0.000
      11 -> 13        -0.15238
      11 -> 20        -0.65028
      11 -> 23        -0.12103
 
 Excited state symmetry could not be determined.
 Excited State  18:      Singlet-?Sym   10.2682 eV  120.75 nm  f=0.0377  <S**2>=0.000
      11 -> 22         0.11187
      12 -> 14         0.10033
      12 -> 21         0.48026
      12 -> 23         0.40129
      12 -> 24         0.18012
      12 -> 27        -0.14088
 
 Excited state symmetry could not be determined.
 Excited State  19:      Singlet-?Sym   10.2832 eV  120.57 nm  f=0.0077  <S**2>=0.000
      12 -> 22         0.67719
      12 -> 26        -0.16455
 
 Excited state symmetry could not be determined.
 Excited State  20:      Singlet-?Sym   10.4018 eV  119.19 nm  f=0.0784  <S**2>=0.000
      12 -> 19        -0.12112
      12 -> 20        -0.25938
      12 -> 21        -0.43291
      12 -> 23         0.31845
      12 -> 24         0.30872
 SavETr:  write IOETrn=   770 NScale= 10 NData=  16 NLR=1 LETran=     370.
 FoFJK:  IHMeth= 1 ICntrl=     0 DoSepK=T KAlg= 1 I1Cent= 0 FoldK=F
 FoFJK:  IHMeth= 1 ICntrl=     0 DoSepK=T KAlg= 1 I1Cent= 0 FoldK=F
          IDoAtm=111111
 NEqPCM:  Using equilibrium solvation (IEInf=0, Eps=  78.3553, EpsInf=   1.7778)
          Differentiating once with respect to electric field.
                with respect to dipole field.
          Differentiating once with respect to nuclear coordinates.
          There are     1 degrees of freedom in the 1st order CPHF.  IDoFFX=0.
 FoFJK:  IHMeth= 1 ICntrl=     0 DoSepK=T KAlg= 1 I1Cent= 0 FoldK=F
 LinEq1:  Iter=  0 NonCon=     1 RMS=4.43D-02 Max=7.86D-01
 AX will form     1 AO Fock derivatives at one time.
 FoFJK:  IHMeth= 1 ICntrl=     0 DoSepK=T KAlg= 1 I1Cent= 0 FoldK=F
 LinEq1:  Iter=  1 NonCon=     1 RMS=1.56D-02 Max=1.24D-01
 FoFJK:  IHMeth= 1 ICntrl=     0 DoSepK=T KAlg= 1 I1Cent= 0 FoldK=F
 LinEq1:  Iter=  2 NonCon=     1 RMS=8.25D-03 Max=1.34D-01
 FoFJK:  IHMeth= 1 ICntrl=     0 DoSepK=T KAlg= 1 I1Cent= 0 FoldK=F
 LinEq1:  Iter=  3 NonCon=     1 RMS=2.13D-03 Max=2.30D-02
 FoFJK:  IHMeth= 1 ICntrl=     0 DoSepK=T KAlg= 1 I1Cent= 0 FoldK=F
 LinEq1:  Iter=  4 NonCon=     1 RMS=1.29D-03 Max=1.50D-02
 FoFJK:  IHMeth= 1 ICntrl=     0 DoSepK=T KAlg= 1 I1Cent= 0 FoldK=F
 LinEq1:  Iter=  5 NonCon=     1 RMS=2.39D-04 Max=1.38D-03
 FoFJK:  IHMeth= 1 ICntrl=     0 DoSepK=T KAlg= 1 I1Cent= 0 FoldK=F
 LinEq1:  Iter=  6 NonCon=     1 RMS=4.97D-05 Max=3.36D-04
 FoFJK:  IHMeth= 1 ICntrl=     0 DoSepK=T KAlg= 1 I1Cent= 0 FoldK=F
 LinEq1:  Iter=  7 NonCon=     1 RMS=9.43D-06 Max=8.48D-05
 FoFJK:  IHMeth= 1 ICntrl=     0 DoSepK=T KAlg= 1 I1Cent= 0 FoldK=F
 LinEq1:  Iter=  8 NonCon=     1 RMS=1.38D-06 Max=1.14D-05
 FoFJK:  IHMeth= 1 ICntrl=     0 DoSepK=T KAlg= 1 I1Cent= 0 FoldK=F
 LinEq1:  Iter=  9 NonCon=     1 RMS=1.80D-07 Max=1.34D-06
 FoFJK:  IHMeth= 1 ICntrl=     0 DoSepK=T KAlg= 1 I1Cent= 0 FoldK=F
 LinEq1:  Iter= 10 NonCon=     1 RMS=3.11D-08 Max=1.69D-07
 FoFJK:  IHMeth= 1 ICntrl=     0 DoSepK=T KAlg= 1 I1Cent= 0 FoldK=F
 LinEq1:  Iter= 11 NonCon=     1 RMS=6.63D-09 Max=5.21D-08
 FoFJK:  IHMeth= 1 ICntrl=     0 DoSepK=T KAlg= 1 I1Cent= 0 FoldK=F
 LinEq1:  Iter= 12 NonCon=     1 RMS=1.11D-09 Max=1.01D-08
 FoFJK:  IHMeth= 1 ICntrl=     0 DoSepK=T KAlg= 1 I1Cent= 0 FoldK=F
 LinEq1:  Iter= 13 NonCon=     1 RMS=1.58D-10 Max=1.35D-09
 FoFJK:  IHMeth= 1 ICntrl=     0 DoSepK=T KAlg= 1 I1Cent= 0 FoldK=F
 LinEq1:  Iter= 14 NonCon=     0 RMS=2.86D-11 Max=2.52D-10
 Linear equations converged to 1.000D-10 1.000D-09 after    14 iterations.
 FoFJK:  IHMeth= 1 ICntrl=     0 DoSepK=T KAlg= 1 I1Cent= 0 FoldK=F
 End of Minotr Frequency-dependent properties file   721 does not exist.
 End of Minotr Frequency-dependent properties file   722 does not exist.
 D1PCM: PCM CHGder 1st derivatives, ID1Alg=3 FixD1E=F DoIter=F DoCFld=F I1PDM=6.
 Calling FoFJK, ICntrl=      5127 FMM=F ISym2X=0 I1Cent= 0 IOpClX= 0 NMat=1 NMatS=1 NMatT=0.
 FoFJK:  IHMeth= 1 ICntrl=  5127 DoSepK=T KAlg= 1 I1Cent= 0 FoldK=F
 -------------------------------------------------------------------
 Center     Atomic                   Forces (Hartrees/Bohr)
 Number     Number              X              Y              Z
 -------------------------------------------------------------------
      1        6          -0.000005518    0.000002252   -0.000018015
      2        7           0.000013523   -0.000009374    0.000004600
      3        8           0.000040120    0.000069259    0.000007070
      4        1          -0.000068344   -0.000027494   -0.000000541
      5        1          -0.000014728   -0.000037837    0.000001808
      6        1           0.000034947    0.000003194    0.000005079
 -------------------------------------------------------------------
 Cartesian Forces:  Max     0.000069259 RMS     0.000029292

 GradGradGradGradGradGradGradGradGradGradGradGradGradGradGradGradGradGrad
 Berny optimization.
 Using GEDIIS/GDIIS optimizer.
 Internal  Forces:  Max     0.000052595 RMS     0.000020653
 Search for a local minimum.
 Step number   7 out of a maximum of   25
 All quantities printed in internal units (Hartrees-Bohrs-Radians)
 Mixed Optimization -- En-DIIS/RFO-DIIS
 Swaping is turned off.
 Update second derivatives using D2CorX and points    1    2    3    4    5
                                                      6    7
 DE= -1.62D-06 DEPred=-1.84D-06 R= 8.81D-01
 SS=  1.41D+00  RLast= 6.65D-03 DXNew= 6.5384D-01 1.9956D-02
 Trust test= 8.81D-01 RLast= 6.65D-03 DXMaxT set to 3.89D-01
 The second derivative matrix:
                          R1        R2        R3        R4        R5
           R1           0.61000
           R2           0.07490   0.61039
           R3           0.00248   0.04191   0.32600
           R4           0.00403  -0.00569   0.00135   0.45966
           R5           0.01124  -0.00039  -0.00345   0.00584   0.47081
           A1           0.03433   0.07575  -0.03397   0.00947  -0.00620
           A2           0.01628  -0.05916   0.00091   0.00016  -0.00075
           A3          -0.04243   0.01345   0.00961  -0.00292   0.00628
           A4           0.01185   0.01156  -0.00544   0.00238  -0.00034
           A5           0.00353  -0.00963   0.00336  -0.00194  -0.00288
           A6          -0.01538  -0.00193   0.00208  -0.00043   0.00322
           D1          -0.00130  -0.00228  -0.00043  -0.00021  -0.00070
           D2          -0.00154  -0.00259  -0.00045  -0.00025  -0.00080
           D3           0.00115   0.00199   0.00036   0.00019   0.00061
           D4           0.00091   0.00168   0.00034   0.00015   0.00051
                          A1        A2        A3        A4        A5
           A1           0.15749
           A2           0.00913   0.15058
           A3           0.03552   0.00726   0.14125
           A4          -0.01840  -0.00056   0.00726   0.15668
           A5           0.00482  -0.00168  -0.00312   0.00108   0.16072
           A6           0.01358   0.00223  -0.00414   0.00224  -0.00181
           D1           0.00015   0.00065  -0.00024  -0.00077  -0.00023
           D2           0.00020   0.00073  -0.00028  -0.00087  -0.00026
           D3          -0.00015  -0.00055   0.00022   0.00066   0.00020
           D4          -0.00010  -0.00048   0.00017   0.00057   0.00017
                          A6        D1        D2        D3        D4
           A6           0.15957
           D1           0.00100   0.03770
           D2           0.00113   0.01496   0.04157
           D3          -0.00086  -0.01138  -0.01294   0.03439
           D4          -0.00073  -0.00957  -0.01088   0.00828   0.03151
     Eigenvalues ---    0.02455   0.02455   0.07139   0.08862   0.13224
     Eigenvalues ---    0.16197   0.16526   0.32803   0.45751   0.47209
     Eigenvalues ---    0.55248   0.700681000.000001000.000001000.00000
 En-DIIS/RFO-DIIS IScMMF=        0 using points:     7    6    5    4
 RFO step:  Lambda=-1.03820542D-08.
 DIIS coeffs:      1.04667     -0.01187     -0.08999      0.05519
 Iteration  1 RMS(Cart)=  0.00011475 RMS(Int)=  0.00000004
 Iteration  2 RMS(Cart)=  0.00000001 RMS(Int)=  0.00000004
 Variable       Old X    -DE/DX   Delta X   Delta X   Delta X     New X
                                  (DIIS)     (GDIIS)  (Total)
    R1        2.44629  -0.00003   0.00004  -0.00007  -0.00003   2.44626
    R2        2.37111  -0.00005  -0.00003  -0.00003  -0.00006   2.37105
    R3        2.08670  -0.00002  -0.00006   0.00001  -0.00006   2.08664
    R4        1.91373   0.00000   0.00001   0.00000   0.00001   1.91374
    R5        1.93128  -0.00002  -0.00001  -0.00003  -0.00004   1.93124
    A1        2.25130  -0.00001  -0.00010   0.00000  -0.00011   2.25120
    A2        2.07593   0.00001  -0.00002   0.00010   0.00008   2.07600
    A3        1.95596   0.00000   0.00012  -0.00009   0.00003   1.95598
    A4        2.13155  -0.00003  -0.00006  -0.00012  -0.00018   2.13137
    A5        2.06914  -0.00001   0.00000  -0.00004  -0.00003   2.06911
    A6        2.08250   0.00003   0.00006   0.00016   0.00021   2.08271
    D1       -0.00008   0.00001   0.00007   0.00000   0.00008   0.00000
    D2        3.14148   0.00001   0.00008   0.00002   0.00010   3.14158
    D3       -3.14152  -0.00001  -0.00006   0.00000  -0.00007  -3.14158
    D4        0.00004   0.00000  -0.00005   0.00001  -0.00004   0.00000
         Item               Value     Threshold  Converged?
 Maximum Force            0.000053     0.000450     YES
 RMS     Force            0.000021     0.000300     YES
 Maximum Displacement     0.000313     0.001800     YES
 RMS     Displacement     0.000115     0.001200     YES
 Predicted change in Energy=-9.953649D-09
 Optimization completed.
    -- Stationary point found.
                           ----------------------------
                           !   Optimized Parameters   !
                           ! (Angstroms and Degrees)  !
 --------------------------                            --------------------------
 ! Name  Definition              Value          Derivative Info.                !
 --------------------------------------------------------------------------------
 ! R1    R(1,2)                  1.2945         -DE/DX =    0.0                 !
 ! R2    R(1,3)                  1.2547         -DE/DX =   -0.0001              !
 ! R3    R(1,6)                  1.1042         -DE/DX =    0.0                 !
 ! R4    R(2,4)                  1.0127         -DE/DX =    0.0                 !
 ! R5    R(2,5)                  1.022          -DE/DX =    0.0                 !
 ! A1    A(2,1,3)              128.9903         -DE/DX =    0.0                 !
 ! A2    A(2,1,6)              118.9418         -DE/DX =    0.0                 !
 ! A3    A(3,1,6)              112.068          -DE/DX =    0.0                 !
 ! A4    A(1,2,4)              122.1287         -DE/DX =    0.0                 !
 ! A5    A(1,2,5)              118.5529         -DE/DX =    0.0                 !
 ! A6    A(4,2,5)              119.3184         -DE/DX =    0.0                 !
 ! D1    D(3,1,2,4)             -0.0045         -DE/DX =    0.0                 !
 ! D2    D(3,1,2,5)            179.9936         -DE/DX =    0.0                 !
 ! D3    D(6,1,2,4)           -179.9956         -DE/DX =    0.0                 !
 ! D4    D(6,1,2,5)              0.0025         -DE/DX =    0.0                 !
 --------------------------------------------------------------------------------
 GradGradGradGradGradGradGradGradGradGradGradGradGradGradGradGradGradGrad

                          Input orientation:                          
 ---------------------------------------------------------------------
 Center     Atomic      Atomic             Coordinates (Angstroms)
 Number     Number       Type             X           Y           Z
 ---------------------------------------------------------------------
      1          6           0       -0.097951    0.368142    0.000041
      2          7           0        1.076595   -0.176128    0.000095
      3          8           0       -1.224283   -0.184796   -0.000109
      4          1           0        1.204683   -1.180697    0.000083
      5          1           0        1.897229    0.432988    0.000123
      6          1           0       -0.176503    1.469577   -0.000016
 ---------------------------------------------------------------------
                    Distance matrix (angstroms):
                    1          2          3          4          5
     1  C    0.000000
     2  N    1.294522   0.000000
     3  O    1.254737   2.300894   0.000000
     4  H    2.023798   1.012702   2.625203   0.000000
     5  H    1.996233   1.021989   3.182058   1.756018   0.000000
     6  H    1.104232   2.068477   1.958262   2.988582   2.318379
                    6
     6  H    0.000000
 Symmetry turned off by external request.
 Stoichiometry    CH3NO
 Framework group  C1[X(CH3NO)]
 Deg. of freedom    12
 Full point group                 C1      NOp   1
 Rotational constants (GHZ):     79.3062144     11.1615354      9.7844715

 **********************************************************************

            Population analysis using the SCF density.

 **********************************************************************

 Alpha  occ. eigenvalues --  -19.19795 -14.44946 -10.37275  -1.11873  -1.01630
 Alpha  occ. eigenvalues --   -0.71325  -0.64107  -0.56983  -0.49146  -0.48542
 Alpha  occ. eigenvalues --   -0.35256  -0.33338
 Alpha virt. eigenvalues --    0.01587   0.03276   0.04394   0.05355   0.07712
 Alpha virt. eigenvalues --    0.08234   0.09519   0.12584   0.14128   0.14990
 Alpha virt. eigenvalues --    0.15974   0.18042   0.20724   0.21210   0.21324
 Alpha virt. eigenvalues --    0.25350   0.27133   0.28333   0.28742   0.35690
 Alpha virt. eigenvalues --    0.37007   0.37227   0.39299   0.44548   0.45696
 Alpha virt. eigenvalues --    0.47493   0.50396   0.51288   0.52394   0.54443
 Alpha virt. eigenvalues --    0.56442   0.57175   0.58015   0.62889   0.66547
 Alpha virt. eigenvalues --    0.69617   0.71920   0.75318   0.80093   0.83071
 Alpha virt. eigenvalues --    0.85326   0.87435   0.92445   1.05204   1.07499
 Alpha virt. eigenvalues --    1.09743   1.13934   1.18718   1.23905   1.29217
 Alpha virt. eigenvalues --    1.29364   1.35386   1.41675   1.48084   1.48351
 Alpha virt. eigenvalues --    1.66783   1.72345   1.74901   1.76264   1.80053
 Alpha virt. eigenvalues --    1.82781   1.90292   1.98044   2.03025   2.04413
 Alpha virt. eigenvalues --    2.08823   2.14478   2.18950   2.21673   2.28750
 Alpha virt. eigenvalues --    2.50585   2.50687   2.56742   2.64342   2.70381
 Alpha virt. eigenvalues --    2.87467   3.07788   3.19238   3.35410   3.40996
 Alpha virt. eigenvalues --    3.46482   3.48700   3.66116   3.77468
          Condensed to atoms (all electrons):
              1          2          3          4          5          6
     1  C    4.843004   0.380028   0.299428  -0.229530  -0.149583   0.053286
     2  N    0.380028   5.742322  -0.053236   0.398692   0.349661  -0.022831
     3  O    0.299428  -0.053236   8.473102  -0.000222  -0.000685  -0.110821
     4  H   -0.229530   0.398692  -0.000222   1.064353  -0.200914   0.059908
     5  H   -0.149583   0.349661  -0.000685  -0.200914   1.009011  -0.017579
     6  H    0.053286  -0.022831  -0.110821   0.059908  -0.017579   1.357005
 Mulliken atomic charges:
              1
     1  C    0.803368
     2  N    0.205364
     3  O   -0.607567
     4  H   -0.092286
     5  H    0.010089
     6  H   -0.318968
 Sum of Mulliken atomic charges =   0.00000
 Mulliken charges with hydrogens summed into heavy atoms:
              1
     1  C    0.484400
     2  N    0.123167
     3  O   -0.607567
 Sum of Mulliken charges with hydrogens summed into heavy atoms =   0.00000
 Electronic spatial extent (au):  <R**2>=            147.5934
 Charge=              0.0000 electrons
 Dipole moment (field-independent basis, Debye):
    X=              5.7888    Y=              1.0186    Z=              0.0004  Tot=              5.8777
 Quadrupole moment (field-independent basis, Debye-Ang):
   XX=            -18.5844   YY=            -15.2601   ZZ=            -19.1919
   XY=             -1.5754   XZ=             -0.0002   YZ=             -0.0001
 Traceless Quadrupole moment (field-independent basis, Debye-Ang):
   XX=             -0.9056   YY=              2.4187   ZZ=             -1.5131
   XY=             -1.5754   XZ=             -0.0002   YZ=             -0.0001
 Octapole moment (field-independent basis, Debye-Ang**2):
  XXX=             19.3943  YYY=             -1.5126  ZZZ=             -0.0007  XYY=              4.3035
  XXY=              0.9741  XXZ=              0.0009  XZZ=             -0.2349  YZZ=             -0.1412
  YYZ=              0.0000  XYZ=              0.0001
 Hexadecapole moment (field-independent basis, Debye-Ang**3):
 XXXX=           -116.9780 YYYY=            -33.0035 ZZZZ=            -19.5093 XXXY=              3.2397
 XXXZ=             -0.0039 YYYX=             -4.2673 YYYZ=             -0.0008 ZZZX=             -0.0052
 ZZZY=             -0.0002 XXYY=            -23.9723 XXZZ=            -26.6745 YYZZ=            -10.0881
 XXYZ=              0.0001 YYXZ=             -0.0013 ZZXY=              0.3354
 N-N= 7.121121176118D+01 E-N=-5.405325891786D+02  KE= 1.687951917125D+02
 1\1\GINC-CLODOMIRA\FOpt\RTD-CAM-B3LYP-FC\Aug-CC-pVDZ\C1H3N1O1\DIEGOA\2
 8-Oct-2019\0\\# cam-b3lyp/aug-cc-pvdz opt nosymm td(root=2,nstates=20)
  SCRF=PCM int(grid=ultrafine)\\Title\\0,1\C,-0.0979506154,0.3681421391
 ,0.0000406992\N,1.0765952187,-0.1761278253,0.0000954072\O,-1.224282709
 7,-0.1847963126,-0.0001087438\H,1.2046827861,-1.180696977,0.0000832945
 \H,1.8972285906,0.43298836,0.0001225984\H,-0.1765032703,1.4695766158,-
 0.0000162555\\Version=EM64L-G09RevA.01\HF=-169.8582306\RMSD=2.772e-09\
 RMSF=2.929e-05\Dipole=2.708005,-0.2338246,0.0003308\PG=C01 [X(C1H3N1O1
 )]\\@


 MAN IS THE MEASURE OF ALL THINGS.
  -- PROTAGORAS (5TH CENTURY B.C.)
 Job cpu time:  0 days  1 hours 26 minutes  0.8 seconds.
 File lengths (MBytes):  RWF=     52 Int=      0 D2E=      0 Chk=      8 Scr=      1
 Normal termination of Gaussian 09 at Mon Oct 28 09:56:13 2019.
