Title                                                                   
FOpt      RTD-CAM-B3LYP-FC                                            Aug-CC-pVDZ         
Number of atoms                            I                6
Info1-9                                    I   N=           9
          14          14           0           0           0         100
           2         218           1
Charge                                     I                0
Multiplicity                               I                1
Number of electrons                        I               24
Number of alpha electrons                  I               12
Number of beta electrons                   I               12
Number of basis functions                  I               96
Number of independent functions            I               96
Number of point charges in /Mol/           I                0
Number of translation vectors              I                0
Atomic numbers                             I   N=           6
           6           7           8           1           1           1
Nuclear charges                            R   N=           6
  6.00000000E+00  7.00000000E+00  8.00000000E+00  1.00000000E+00  1.00000000E+00
  1.00000000E+00
Current cartesian coordinates              R   N=          18
 -3.44546321E-01  8.36817064E-01  5.31234643E-01  2.12261087E+00 -1.82629568E-01
  2.26233520E-01 -1.65382316E+00 -3.48608084E-01 -1.18065239E+00  2.39995459E+00
 -1.98106374E+00  8.42968391E-01  3.10444004E+00  2.12788197E-01 -1.39177495E+00
 -5.64604620E-01  2.84046711E+00  9.72400859E-01
Force Field                                I                0
Int Atom Types                             I   N=           6
           0           0           0           0           0           0
MM charges                                 R   N=           6
  0.00000000E+00  0.00000000E+00  0.00000000E+00  0.00000000E+00  0.00000000E+00
  0.00000000E+00
Integer atomic weights                     I   N=           6
          12          14          16           1           1           1
Real atomic weights                        R   N=           6
  1.20000000E+01  1.40030740E+01  1.59949146E+01  1.00782504E+00  1.00782504E+00
  1.00782504E+00
Atom fragment info                         I   N=           6
           0           0           0           0           0           0
Atom residue num                           I   N=           6
           0           0           0           0           0           0
Nuclear spins                              I   N=           6
           0           2           0           1           1           1
Nuclear ZEff                               R   N=           6
 -3.60000000E+00 -4.55000000E+00 -5.60000000E+00 -1.00000000E+00 -1.00000000E+00
 -1.00000000E+00
Nuclear QMom                               R   N=           6
  0.00000000E+00  2.04400000E+00  0.00000000E+00  0.00000000E+00  0.00000000E+00
  0.00000000E+00
Nuclear GFac                               R   N=           6
  0.00000000E+00  4.03761000E-01  0.00000000E+00  2.79284600E+00  2.79284600E+00
  2.79284600E+00
MicOpt                                     I   N=           6
          -1          -1          -1          -1          -1          -1
Number of contracted shells                I               42
Number of primitive shells                 I               90
Pure/Cartesian d shells                    I                0
Pure/Cartesian f shells                    I                0
Highest angular momentum                   I                2
Largest degree of contraction              I                7
Shell types                                I   N=          42
           0           0           0           0           1           1
           1          -2          -2           0           0           0
           0           1           1           1          -2          -2
           0           0           0           0           1           1
           1          -2          -2           0           0           0
           1           1           0           0           0           1
           1           0           0           0           1           1
Number of primitives per shell             I   N=          42
           7           7           1           1           3           1
           1           1           1           7           7           1
           1           3           1           1           1           1
           7           7           1           1           3           1
           1           1           1           3           1           1
           1           1           3           1           1           1
           1           3           1           1           1           1
Shell to atom map                          I   N=          42
           1           1           1           1           1           1
           1           1           1           2           2           2
           2           2           2           2           2           2
           3           3           3           3           3           3
           3           3           3           4           4           4
           4           4           5           5           5           5
           5           6           6           6           6           6
Primitive exponents                        R   N=          90
  6.66500000E+03  1.00000000E+03  2.28000000E+02  6.47100000E+01  2.10600000E+01
  7.49500000E+00  2.79700000E+00  6.66500000E+03  2.28000000E+02  6.47100000E+01
  2.10600000E+01  7.49500000E+00  2.79700000E+00  5.21500000E-01  1.59600000E-01
  4.69000000E-02  9.43900000E+00  2.00200000E+00  5.45600000E-01  1.51700000E-01
  4.04100000E-02  5.50000000E-01  1.51000000E-01  9.04600000E+03  1.35700000E+03
  3.09300000E+02  8.77300000E+01  2.85600000E+01  1.02100000E+01  3.83800000E+00
  9.04600000E+03  3.09300000E+02  8.77300000E+01  2.85600000E+01  1.02100000E+01
  3.83800000E+00  7.46600000E-01  2.24800000E-01  6.12400000E-02  1.35500000E+01
  2.91700000E+00  7.97300000E-01  2.18500000E-01  5.61100000E-02  8.17000000E-01
  2.30000000E-01  1.17200000E+04  1.75900000E+03  4.00800000E+02  1.13700000E+02
  3.70300000E+01  1.32700000E+01  5.02500000E+00  1.17200000E+04  4.00800000E+02
  1.13700000E+02  3.70300000E+01  1.32700000E+01  5.02500000E+00  1.01300000E+00
  3.02300000E-01  7.89600000E-02  1.77000000E+01  3.85400000E+00  1.04600000E+00
  2.75300000E-01  6.85600000E-02  1.18500000E+00  3.32000000E-01  1.30100000E+01
  1.96200000E+00  4.44600000E-01  1.22000000E-01  2.97400000E-02  7.27000000E-01
  1.41000000E-01  1.30100000E+01  1.96200000E+00  4.44600000E-01  1.22000000E-01
  2.97400000E-02  7.27000000E-01  1.41000000E-01  1.30100000E+01  1.96200000E+00
  4.44600000E-01  1.22000000E-01  2.97400000E-02  7.27000000E-01  1.41000000E-01
Contraction coefficients                   R   N=          90
  6.93516317E-04  5.34150243E-03  2.71366714E-02  1.01992385E-01  2.75508636E-01
  4.51086433E-01  2.87565745E-01  7.73354740E-06  2.78072137E-04 -2.57875654E-03
 -8.95087684E-03 -1.06058855E-01 -1.31517686E-01  1.09948660E+00  1.00000000E+00
  1.00000000E+00  5.69792516E-02  3.13207212E-01  7.60376742E-01  1.00000000E+00
  1.00000000E+00  1.00000000E+00  1.00000000E+00  7.01708743E-04  5.40299880E-03
  2.74729510E-02  1.03514580E-01  2.79586579E-01  4.51317241E-01  2.80626875E-01
  7.77446797E-06  3.00742072E-04 -2.80016549E-03 -9.89708505E-03 -1.14331114E-01
 -1.18162383E-01  1.09786885E+00  1.00000000E+00  1.00000000E+00  5.89056768E-02
  3.20461107E-01  7.53042062E-01  1.00000000E+00  1.00000000E+00  1.00000000E+00
  1.00000000E+00  7.11864434E-04  5.48520199E-03  2.79099296E-02  1.05133208E-01
  2.84002490E-01  4.51673946E-01  2.73208126E-01  7.69030046E-06  3.13484579E-04
 -2.96614853E-03 -1.08753543E-02 -1.20753817E-01 -1.06275264E-01  1.09597548E+00
  1.00000000E+00  1.00000000E+00  6.26791663E-02  3.33536566E-01  7.41239642E-01
  1.00000000E+00  1.00000000E+00  1.00000000E+00  1.00000000E+00  3.34987264E-02
  2.34800801E-01  8.13682958E-01  1.00000000E+00  1.00000000E+00  1.00000000E+00
  1.00000000E+00  3.34987264E-02  2.34800801E-01  8.13682958E-01  1.00000000E+00
  1.00000000E+00  1.00000000E+00  1.00000000E+00  3.34987264E-02  2.34800801E-01
  8.13682958E-01  1.00000000E+00  1.00000000E+00  1.00000000E+00  1.00000000E+00
Coordinates of each shell                  R   N=         126
 -3.44546321E-01  8.36817064E-01  5.31234643E-01 -3.44546321E-01  8.36817064E-01
  5.31234643E-01 -3.44546321E-01  8.36817064E-01  5.31234643E-01 -3.44546321E-01
  8.36817064E-01  5.31234643E-01 -3.44546321E-01  8.36817064E-01  5.31234643E-01
 -3.44546321E-01  8.36817064E-01  5.31234643E-01 -3.44546321E-01  8.36817064E-01
  5.31234643E-01 -3.44546321E-01  8.36817064E-01  5.31234643E-01 -3.44546321E-01
  8.36817064E-01  5.31234643E-01  2.12261087E+00 -1.82629568E-01  2.26233520E-01
  2.12261087E+00 -1.82629568E-01  2.26233520E-01  2.12261087E+00 -1.82629568E-01
  2.26233520E-01  2.12261087E+00 -1.82629568E-01  2.26233520E-01  2.12261087E+00
 -1.82629568E-01  2.26233520E-01  2.12261087E+00 -1.82629568E-01  2.26233520E-01
  2.12261087E+00 -1.82629568E-01  2.26233520E-01  2.12261087E+00 -1.82629568E-01
  2.26233520E-01  2.12261087E+00 -1.82629568E-01  2.26233520E-01 -1.65382316E+00
 -3.48608084E-01 -1.18065239E+00 -1.65382316E+00 -3.48608084E-01 -1.18065239E+00
 -1.65382316E+00 -3.48608084E-01 -1.18065239E+00 -1.65382316E+00 -3.48608084E-01
 -1.18065239E+00 -1.65382316E+00 -3.48608084E-01 -1.18065239E+00 -1.65382316E+00
 -3.48608084E-01 -1.18065239E+00 -1.65382316E+00 -3.48608084E-01 -1.18065239E+00
 -1.65382316E+00 -3.48608084E-01 -1.18065239E+00 -1.65382316E+00 -3.48608084E-01
 -1.18065239E+00  2.39995459E+00 -1.98106374E+00  8.42968391E-01  2.39995459E+00
 -1.98106374E+00  8.42968391E-01  2.39995459E+00 -1.98106374E+00  8.42968391E-01
  2.39995459E+00 -1.98106374E+00  8.42968391E-01  2.39995459E+00 -1.98106374E+00
  8.42968391E-01  3.10444004E+00  2.12788197E-01 -1.39177495E+00  3.10444004E+00
  2.12788197E-01 -1.39177495E+00  3.10444004E+00  2.12788197E-01 -1.39177495E+00
  3.10444004E+00  2.12788197E-01 -1.39177495E+00  3.10444004E+00  2.12788197E-01
 -1.39177495E+00 -5.64604620E-01  2.84046711E+00  9.72400859E-01 -5.64604620E-01
  2.84046711E+00  9.72400859E-01 -5.64604620E-01  2.84046711E+00  9.72400859E-01
 -5.64604620E-01  2.84046711E+00  9.72400859E-01 -5.64604620E-01  2.84046711E+00
  9.72400859E-01
Density Number of contracted shells        I               84
Density Number of primitive shells         I               84
Density Pure/Cartesian d shells            I                0
Density Pure/Cartesian f shells            I                0
Density Highest angular momentum           I                3
Density Largest degree of contraction      I                1
Density Shell types                        I   N=          84
           0           0           0           0           0          -1
          -2          -1          -2          -1          -2          -3
          -1          -2          -3          -1          -2          -3
           0           0           0           0           0          -1
          -2          -1          -2          -1          -2          -3
          -1          -2          -3          -1          -2          -3
           0           0           0           0           0          -1
          -2          -1          -2          -1          -2          -3
          -1          -2          -3          -1          -2          -3
           0           0          -1          -2          -1          -2
          -1          -2          -1          -2           0           0
          -1          -2          -1          -2          -1          -2
          -1          -2           0           0          -1          -2
          -1          -2          -1          -2          -1          -2
Density Number of primitives per shell     I   N=          84
           1           1           1           1           1           1
           1           1           1           1           1           1
           1           1           1           1           1           1
           1           1           1           1           1           1
           1           1           1           1           1           1
           1           1           1           1           1           1
           1           1           1           1           1           1
           1           1           1           1           1           1
           1           1           1           1           1           1
           1           1           1           1           1           1
           1           1           1           1           1           1
           1           1           1           1           1           1
           1           1           1           1           1           1
           1           1           1           1           1           1
Density Shell to atom map                  I   N=          84
           1           1           1           1           1           1
           1           1           1           1           1           1
           1           1           1           1           1           1
           2           2           2           2           2           2
           2           2           2           2           2           2
           2           2           2           2           2           2
           3           3           3           3           3           3
           3           3           3           3           3           3
           3           3           3           3           3           3
           4           4           4           4           4           4
           4           4           4           4           5           5
           5           5           5           5           5           5
           5           5           6           6           6           6
           6           6           6           6           6           6
Density Primitive exponents                R   N=          84
  1.33300000E+04  2.00000000E+03  4.56000000E+02  1.29420000E+02  4.21200000E+01
  1.68220457E+01  1.68220457E+01  4.73269226E+00  4.73269226E+00  1.06897221E+00
  1.06897221E+00  1.06897221E+00  3.10840122E-01  3.10840122E-01  3.10840122E-01
  8.70684558E-02  8.70684558E-02  8.70684558E-02  1.80920000E+04  2.71400000E+03
  6.18600000E+02  1.75460000E+02  5.71200000E+01  2.35240728E+01  2.35240728E+01
  6.69191931E+00  6.69191931E+00  1.55251192E+00  1.55251192E+00  1.55251192E+00
  4.45796600E-01  4.45796600E-01  4.45796600E-01  1.17237816E-01  1.17237816E-01
  1.17237816E-01  2.34400000E+04  3.51800000E+03  8.01600000E+02  2.27400000E+02
  7.40600000E+01  3.06515252E+01  3.06515252E+01  8.80144306E+00  8.80144306E+00
  2.20889185E+00  2.20889185E+00  2.20889185E+00  5.90645853E-01  5.90645853E-01
  5.90645853E-01  1.47152949E-01  1.47152949E-01  1.47152949E-01  2.60200000E+01
  3.92400000E+00  1.45400000E+00  1.45400000E+00  8.89200000E-01  8.89200000E-01
  2.62312790E-01  2.62312790E-01  5.94800000E-02  5.94800000E-02  2.60200000E+01
  3.92400000E+00  1.45400000E+00  1.45400000E+00  8.89200000E-01  8.89200000E-01
  2.62312790E-01  2.62312790E-01  5.94800000E-02  5.94800000E-02  2.60200000E+01
  3.92400000E+00  1.45400000E+00  1.45400000E+00  8.89200000E-01  8.89200000E-01
  2.62312790E-01  2.62312790E-01  5.94800000E-02  5.94800000E-02
Density Contraction coefficients           R   N=          84
  1.00000000E+00  1.00000000E+00  1.00000000E+00  1.00000000E+00  1.00000000E+00
  1.00000000E+00  1.00000000E+00  1.00000000E+00  1.00000000E+00  1.00000000E+00
  1.00000000E+00  1.00000000E+00  1.00000000E+00  1.00000000E+00  1.00000000E+00
  1.00000000E+00  1.00000000E+00  1.00000000E+00  1.00000000E+00  1.00000000E+00
  1.00000000E+00  1.00000000E+00  1.00000000E+00  1.00000000E+00  1.00000000E+00
  1.00000000E+00  1.00000000E+00  1.00000000E+00  1.00000000E+00  1.00000000E+00
  1.00000000E+00  1.00000000E+00  1.00000000E+00  1.00000000E+00  1.00000000E+00
  1.00000000E+00  1.00000000E+00  1.00000000E+00  1.00000000E+00  1.00000000E+00
  1.00000000E+00  1.00000000E+00  1.00000000E+00  1.00000000E+00  1.00000000E+00
  1.00000000E+00  1.00000000E+00  1.00000000E+00  1.00000000E+00  1.00000000E+00
  1.00000000E+00  1.00000000E+00  1.00000000E+00  1.00000000E+00  1.00000000E+00
  1.00000000E+00  1.00000000E+00  1.00000000E+00  1.00000000E+00  1.00000000E+00
  1.00000000E+00  1.00000000E+00  1.00000000E+00  1.00000000E+00  1.00000000E+00
  1.00000000E+00  1.00000000E+00  1.00000000E+00  1.00000000E+00  1.00000000E+00
  1.00000000E+00  1.00000000E+00  1.00000000E+00  1.00000000E+00  1.00000000E+00
  1.00000000E+00  1.00000000E+00  1.00000000E+00  1.00000000E+00  1.00000000E+00
  1.00000000E+00  1.00000000E+00  1.00000000E+00  1.00000000E+00
Density P(S=P) Contraction coefficients    R   N=          84
  0.00000000E+00  0.00000000E+00  0.00000000E+00  0.00000000E+00  0.00000000E+00
  1.00000000E+00  0.00000000E+00  1.00000000E+00  0.00000000E+00  1.00000000E+00
  0.00000000E+00  0.00000000E+00  1.00000000E+00  0.00000000E+00  0.00000000E+00
  1.00000000E+00  0.00000000E+00  0.00000000E+00  0.00000000E+00  0.00000000E+00
  0.00000000E+00  0.00000000E+00  0.00000000E+00  1.00000000E+00  0.00000000E+00
  1.00000000E+00  0.00000000E+00  1.00000000E+00  0.00000000E+00  0.00000000E+00
  1.00000000E+00  0.00000000E+00  0.00000000E+00  1.00000000E+00  0.00000000E+00
  0.00000000E+00  0.00000000E+00  0.00000000E+00  0.00000000E+00  0.00000000E+00
  0.00000000E+00  1.00000000E+00  0.00000000E+00  1.00000000E+00  0.00000000E+00
  1.00000000E+00  0.00000000E+00  0.00000000E+00  1.00000000E+00  0.00000000E+00
  0.00000000E+00  1.00000000E+00  0.00000000E+00  0.00000000E+00  0.00000000E+00
  0.00000000E+00  1.00000000E+00  0.00000000E+00  1.00000000E+00  0.00000000E+00
  1.00000000E+00  0.00000000E+00  1.00000000E+00  0.00000000E+00  0.00000000E+00
  0.00000000E+00  1.00000000E+00  0.00000000E+00  1.00000000E+00  0.00000000E+00
  1.00000000E+00  0.00000000E+00  1.00000000E+00  0.00000000E+00  0.00000000E+00
  0.00000000E+00  1.00000000E+00  0.00000000E+00  1.00000000E+00  0.00000000E+00
  1.00000000E+00  0.00000000E+00  1.00000000E+00  0.00000000E+00
Density Coordinates of each shell          R   N=         252
 -3.44546321E-01  8.36817064E-01  5.31234643E-01 -3.44546321E-01  8.36817064E-01
  5.31234643E-01 -3.44546321E-01  8.36817064E-01  5.31234643E-01 -3.44546321E-01
  8.36817064E-01  5.31234643E-01 -3.44546321E-01  8.36817064E-01  5.31234643E-01
 -3.44546321E-01  8.36817064E-01  5.31234643E-01 -3.44546321E-01  8.36817064E-01
  5.31234643E-01 -3.44546321E-01  8.36817064E-01  5.31234643E-01 -3.44546321E-01
  8.36817064E-01  5.31234643E-01 -3.44546321E-01  8.36817064E-01  5.31234643E-01
 -3.44546321E-01  8.36817064E-01  5.31234643E-01 -3.44546321E-01  8.36817064E-01
  5.31234643E-01 -3.44546321E-01  8.36817064E-01  5.31234643E-01 -3.44546321E-01
  8.36817064E-01  5.31234643E-01 -3.44546321E-01  8.36817064E-01  5.31234643E-01
 -3.44546321E-01  8.36817064E-01  5.31234643E-01 -3.44546321E-01  8.36817064E-01
  5.31234643E-01 -3.44546321E-01  8.36817064E-01  5.31234643E-01  2.12261087E+00
 -1.82629568E-01  2.26233520E-01  2.12261087E+00 -1.82629568E-01  2.26233520E-01
  2.12261087E+00 -1.82629568E-01  2.26233520E-01  2.12261087E+00 -1.82629568E-01
  2.26233520E-01  2.12261087E+00 -1.82629568E-01  2.26233520E-01  2.12261087E+00
 -1.82629568E-01  2.26233520E-01  2.12261087E+00 -1.82629568E-01  2.26233520E-01
  2.12261087E+00 -1.82629568E-01  2.26233520E-01  2.12261087E+00 -1.82629568E-01
  2.26233520E-01  2.12261087E+00 -1.82629568E-01  2.26233520E-01  2.12261087E+00
 -1.82629568E-01  2.26233520E-01  2.12261087E+00 -1.82629568E-01  2.26233520E-01
  2.12261087E+00 -1.82629568E-01  2.26233520E-01  2.12261087E+00 -1.82629568E-01
  2.26233520E-01  2.12261087E+00 -1.82629568E-01  2.26233520E-01  2.12261087E+00
 -1.82629568E-01  2.26233520E-01  2.12261087E+00 -1.82629568E-01  2.26233520E-01
  2.12261087E+00 -1.82629568E-01  2.26233520E-01 -1.65382316E+00 -3.48608084E-01
 -1.18065239E+00 -1.65382316E+00 -3.48608084E-01 -1.18065239E+00 -1.65382316E+00
 -3.48608084E-01 -1.18065239E+00 -1.65382316E+00 -3.48608084E-01 -1.18065239E+00
 -1.65382316E+00 -3.48608084E-01 -1.18065239E+00 -1.65382316E+00 -3.48608084E-01
 -1.18065239E+00 -1.65382316E+00 -3.48608084E-01 -1.18065239E+00 -1.65382316E+00
 -3.48608084E-01 -1.18065239E+00 -1.65382316E+00 -3.48608084E-01 -1.18065239E+00
 -1.65382316E+00 -3.48608084E-01 -1.18065239E+00 -1.65382316E+00 -3.48608084E-01
 -1.18065239E+00 -1.65382316E+00 -3.48608084E-01 -1.18065239E+00 -1.65382316E+00
 -3.48608084E-01 -1.18065239E+00 -1.65382316E+00 -3.48608084E-01 -1.18065239E+00
 -1.65382316E+00 -3.48608084E-01 -1.18065239E+00 -1.65382316E+00 -3.48608084E-01
 -1.18065239E+00 -1.65382316E+00 -3.48608084E-01 -1.18065239E+00 -1.65382316E+00
 -3.48608084E-01 -1.18065239E+00  2.39995459E+00 -1.98106374E+00  8.42968391E-01
  2.39995459E+00 -1.98106374E+00  8.42968391E-01  2.39995459E+00 -1.98106374E+00
  8.42968391E-01  2.39995459E+00 -1.98106374E+00  8.42968391E-01  2.39995459E+00
 -1.98106374E+00  8.42968391E-01  2.39995459E+00 -1.98106374E+00  8.42968391E-01
  2.39995459E+00 -1.98106374E+00  8.42968391E-01  2.39995459E+00 -1.98106374E+00
  8.42968391E-01  2.39995459E+00 -1.98106374E+00  8.42968391E-01  2.39995459E+00
 -1.98106374E+00  8.42968391E-01  3.10444004E+00  2.12788197E-01 -1.39177495E+00
  3.10444004E+00  2.12788197E-01 -1.39177495E+00  3.10444004E+00  2.12788197E-01
 -1.39177495E+00  3.10444004E+00  2.12788197E-01 -1.39177495E+00  3.10444004E+00
  2.12788197E-01 -1.39177495E+00  3.10444004E+00  2.12788197E-01 -1.39177495E+00
  3.10444004E+00  2.12788197E-01 -1.39177495E+00  3.10444004E+00  2.12788197E-01
 -1.39177495E+00  3.10444004E+00  2.12788197E-01 -1.39177495E+00  3.10444004E+00
  2.12788197E-01 -1.39177495E+00 -5.64604620E-01  2.84046711E+00  9.72400859E-01
 -5.64604620E-01  2.84046711E+00  9.72400859E-01 -5.64604620E-01  2.84046711E+00
  9.72400859E-01 -5.64604620E-01  2.84046711E+00  9.72400859E-01 -5.64604620E-01
  2.84046711E+00  9.72400859E-01 -5.64604620E-01  2.84046711E+00  9.72400859E-01
 -5.64604620E-01  2.84046711E+00  9.72400859E-01 -5.64604620E-01  2.84046711E+00
  9.72400859E-01 -5.64604620E-01  2.84046711E+00  9.72400859E-01 -5.64604620E-01
  2.84046711E+00  9.72400859E-01
Constraint Structure                       R   N=          18
 -5.20889780E-01  5.41803380E-01  2.53752425E-01  1.99060538E+00 -4.37543409E-01
 -8.45425677E-02 -2.30412418E+00  1.21868438E-02 -1.20828711E+00  2.72994561E+00
 -1.60783191E+00  1.25814753E+00  3.36175854E+00  3.65013831E-01 -1.20402389E+00
 -1.93264181E-01  2.50414224E+00  9.85363677E-01
Num ILSW                                   I              100
ILSW                                       I   N=         100
           0           0           0           0           2           0
           0           0           0           0       20419          -1
           5           0           0           0           0           0
           0           0           1           0           1           0
           1           1           0           0           0           0
           0           0      100000           0          -1           0
           0           0           0           0           0           0
           0           0           0           1           0           0
           0           0           1           0           0           0
           0           0           4          40           0           0
           0           0          40           0           0           0
           0           0           0           0           0           0
           0           0           0           0           0           0
           0           0           0           0           0           0
           0           0           0           0           0           0
           0           0           0           0           0           0
           0           0           0           0
Num RLSW                                   I               40
RLSW                                       R   N=          40
  1.00000000E+00  1.00000000E+00  1.00000000E+00  8.10000000E-01  1.00000000E+00
  0.00000000E+00  3.30000000E-01  1.90000000E-01  0.00000000E+00  4.60000000E-01
  0.00000000E+00  3.30000000E-01  1.90000000E-01  0.00000000E+00  4.60000000E-01
  0.00000000E+00  0.00000000E+00  1.00000000E+00  0.00000000E+00  0.00000000E+00
  0.00000000E+00  0.00000000E+00  1.00000000E+00  0.00000000E+00  0.00000000E+00
  0.00000000E+00  0.00000000E+00  1.00000000E+00  0.00000000E+00  0.00000000E+00
  0.00000000E+00  0.00000000E+00  0.00000000E+00  0.00000000E+00  0.00000000E+00
  0.00000000E+00  0.00000000E+00  0.00000000E+00  1.00000000E+00  1.00000000E+00
MxBond                                     I                3
NBond                                      I   N=           6
           3           3           1           1           1           1
IBond                                      I   N=          18
           2           3           6           1           4           5
           1           0           0           2           0           0
           2           0           0           1           0           0
RBond                                      R   N=          18
  1.00000000E+00  2.00000000E+00  1.00000000E+00  1.00000000E+00  1.00000000E+00
  1.00000000E+00  2.00000000E+00  0.00000000E+00  0.00000000E+00  1.00000000E+00
  0.00000000E+00  0.00000000E+00  1.00000000E+00  0.00000000E+00  0.00000000E+00
  1.00000000E+00  0.00000000E+00  0.00000000E+00
Virial Ratio                               R      2.007406479918120E+00
SCF Energy                                 R     -1.697737427837831E+02
CIS Energy                                 R     -1.696944402968244E+02
Total Energy                               R     -1.696944402968244E+02
Post-SCF wavefunction norm                 R      1.000000000000000E+00
RMS Force                                  R      1.428644480280651E-04
RMS Density                                R      8.058892453743198E-09
External E-field                           R   N=          35
  0.00000000E+00  0.00000000E+00  0.00000000E+00  0.00000000E+00  0.00000000E+00
  0.00000000E+00  0.00000000E+00  0.00000000E+00  0.00000000E+00  0.00000000E+00
  0.00000000E+00  0.00000000E+00  0.00000000E+00  0.00000000E+00  0.00000000E+00
  0.00000000E+00  0.00000000E+00  0.00000000E+00  0.00000000E+00  0.00000000E+00
  0.00000000E+00  0.00000000E+00  0.00000000E+00  0.00000000E+00  0.00000000E+00
  0.00000000E+00  0.00000000E+00  0.00000000E+00  0.00000000E+00  0.00000000E+00
  0.00000000E+00  0.00000000E+00  0.00000000E+00  0.00000000E+00  0.00000000E+00
IOpCl                                      I                0
IROHF                                      I                0
Alpha Orbital Energies                     R   N=          96
 -1.92428289E+01 -1.43992828E+01 -1.04044709E+01 -1.12508686E+00 -9.51493365E-01
 -7.12268967E-01 -5.91429683E-01 -5.65549347E-01 -5.26726101E-01 -4.37223294E-01
 -3.80743116E-01 -2.99468051E-01 -4.71813993E-02  1.78313784E-02  3.32140729E-02
  4.47086493E-02  6.17921604E-02  9.45161644E-02  1.04256065E-01  1.32689688E-01
  1.38054219E-01  1.42279401E-01  1.62790426E-01  1.65938117E-01  1.97654425E-01
  2.09255186E-01  2.41038558E-01  2.47100086E-01  2.56866114E-01  2.75675646E-01
  2.88247082E-01  3.23739985E-01  3.47024554E-01  3.59508125E-01  4.04590319E-01
  4.27508713E-01  4.48287149E-01  4.60940718E-01  4.75895247E-01  4.86129722E-01
  5.30211858E-01  5.34477151E-01  5.62280786E-01  5.70257898E-01  5.88930321E-01
  6.18627116E-01  6.55014408E-01  6.84859724E-01  7.19273828E-01  7.48209225E-01
  7.96816813E-01  8.24461646E-01  8.38190599E-01  8.59304427E-01  9.29297463E-01
  9.95830962E-01  1.03565041E+00  1.05965565E+00  1.07974218E+00  1.12997120E+00
  1.18788870E+00  1.21252650E+00  1.27916402E+00  1.37164852E+00  1.43118597E+00
  1.46292886E+00  1.53248776E+00  1.57614599E+00  1.62708394E+00  1.72851049E+00
  1.75593429E+00  1.80571614E+00  1.81370019E+00  1.90411192E+00  1.95401993E+00
  2.06282718E+00  2.07166394E+00  2.09191631E+00  2.10644964E+00  2.17697639E+00
  2.20147327E+00  2.26678384E+00  2.33353604E+00  2.42924317E+00  2.53887713E+00
  2.60479722E+00  2.70113655E+00  2.77957006E+00  2.89651631E+00  3.04117280E+00
  3.20796896E+00  3.38359430E+00  3.40210246E+00  3.45393744E+00  3.57481988E+00
  3.62545014E+00
Alpha MO coefficients                      R   N=        9216
  4.22513619E-05  3.86894519E-04  1.43220803E-02  4.59976266E-03 -6.42381058E-04
 -3.38682809E-04 -1.01438485E-03 -6.38432823E-03 -1.05865346E-02 -1.03124909E-02
  3.03351163E-04 -8.24072839E-04  1.66103087E-04 -3.29854230E-04  8.85970280E-05
  2.65325702E-04 -2.35150295E-04 -2.89476247E-04  2.56135377E-03  2.53658963E-03
  4.61098200E-03  2.85574926E-04  2.96328667E-03  2.46548557E-05  9.20773466E-06
 -9.29440194E-04 -4.00660962E-05  2.18035624E-04 -4.67558591E-05  4.94496007E-06
  1.47692121E-03  4.32722274E-04  6.67445732E-04 -1.48575630E-04 -5.44215002E-04
 -9.95649782E-04  1.03630006E-04  8.60521620E-05  1.62075611E-05 -5.04987322E-05
  7.38244814E-05  8.17953829E-05 -5.48564407E-04  7.29537548E-05 -6.70969127E-04
 -1.93212523E-04  9.96823990E-01  2.53893385E-02 -2.63858806E-02 -1.01448283E-02
  8.18106181E-04  8.17721034E-04  1.24789729E-03 -4.95056618E-03 -3.61340413E-03
 -5.83052446E-03 -1.94069556E-03 -7.97562627E-04 -1.68855369E-03  6.57049724E-05
  3.04585049E-05  1.60151485E-05 -1.19344990E-05  7.90885627E-05 -5.35063541E-04
 -8.99239041E-04 -5.98284633E-04 -1.39140305E-04 -7.42303071E-04  1.14564387E-06