 Entering Gaussian System, Link 0=g09
 Input=td3-opt.com
 Output=td3-opt.log
 Initial command:
 /home/diegoa/progs/g09/l1.exe /home/diegoa/g09scratch/Gau-30236.inp -scrdir=/home/diegoa/g09scratch/
 Default is to use a total of   4 processors:
                                4 via shared-memory
                                1 via Linda
 Entering Link 1 = /home/diegoa/progs/g09/l1.exe PID=     30238.
  
 Copyright (c) 1988,1990,1992,1993,1995,1998,2003,2009, Gaussian, Inc.
                  All Rights Reserved.
  
 This is part of the Gaussian(R) 09 program.  It is based on
 the Gaussian(R) 03 system (copyright 2003, Gaussian, Inc.),
 the Gaussian(R) 98 system (copyright 1998, Gaussian, Inc.),
 the Gaussian(R) 94 system (copyright 1995, Gaussian, Inc.),
 the Gaussian 92(TM) system (copyright 1992, Gaussian, Inc.),
 the Gaussian 90(TM) system (copyright 1990, Gaussian, Inc.),
 the Gaussian 88(TM) system (copyright 1988, Gaussian, Inc.),
 the Gaussian 86(TM) system (copyright 1986, Carnegie Mellon
 University), and the Gaussian 82(TM) system (copyright 1983,
 Carnegie Mellon University). Gaussian is a federally registered
 trademark of Gaussian, Inc.
  
 This software contains proprietary and confidential information,
 including trade secrets, belonging to Gaussian, Inc.
  
 This software is provided under written license and may be
 used, copied, transmitted, or stored only in accord with that
 written license.
  
 The following legend is applicable only to US Government
 contracts under FAR:
  
                    RESTRICTED RIGHTS LEGEND
  
 Use, reproduction and disclosure by the US Government is
 subject to restrictions as set forth in subparagraphs (a)
 and (c) of the Commercial Computer Software - Restricted
 Rights clause in FAR 52.227-19.
  
 Gaussian, Inc.
 340 Quinnipiac St., Bldg. 40, Wallingford CT 06492
  
  
 ---------------------------------------------------------------
 Warning -- This program may not be used in any manner that
 competes with the business of Gaussian, Inc. or will provide
 assistance to any competitor of Gaussian, Inc.  The licensee
 of this program is prohibited from giving any competitor of
 Gaussian, Inc. access to this program.  By using this program,
 the user acknowledges that Gaussian, Inc. is engaged in the
 business of creating and licensing software in the field of
 computational chemistry and represents and warrants to the
 licensee that it is not a competitor of Gaussian, Inc. and that
 it will not use this program in any manner prohibited above.
 ---------------------------------------------------------------
  

 Cite this work as:
 Gaussian 09, Revision A.01,
 M. J. Frisch, G. W. Trucks, H. B. Schlegel, G. E. Scuseria, 
 M. A. Robb, J. R. Cheeseman, G. Scalmani, V. Barone, B. Mennucci, 
 G. A. Petersson, H. Nakatsuji, M. Caricato, X. Li, H. P. Hratchian, 
 A. F. Izmaylov, J. Bloino, G. Zheng, J. L. Sonnenberg, M. Hada, 
 M. Ehara, K. Toyota, R. Fukuda, J. Hasegawa, M. Ishida, T. Nakajima, 
 Y. Honda, O. Kitao, H. Nakai, T. Vreven, J. A. Montgomery, Jr., 
 J. E. Peralta, F. Ogliaro, M. Bearpark, J. J. Heyd, E. Brothers, 
 K. N. Kudin, V. N. Staroverov, R. Kobayashi, J. Normand, 
 K. Raghavachari, A. Rendell, J. C. Burant, S. S. Iyengar, J. Tomasi, 
 M. Cossi, N. Rega, J. M. Millam, M. Klene, J. E. Knox, J. B. Cross, 
 V. Bakken, C. Adamo, J. Jaramillo, R. Gomperts, R. E. Stratmann, 
 O. Yazyev, A. J. Austin, R. Cammi, C. Pomelli, J. W. Ochterski, 
 R. L. Martin, K. Morokuma, V. G. Zakrzewski, G. A. Voth, 
 P. Salvador, J. J. Dannenberg, S. Dapprich, A. D. Daniels, 
 O. Farkas, J. B. Foresman, J. V. Ortiz, J. Cioslowski, 
 and D. J. Fox, Gaussian, Inc., Wallingford CT, 2009.
 
 ******************************************
 Gaussian 09:  EM64L-G09RevA.01  8-May-2009
                28-Oct-2019 
 ******************************************
 %chk=td3-opt.chk
 %NProcShared=4
 Will use up to    4 processors via shared memory.
 Default route:  MP2=Direct MaxDisk=1000GB DenFit
 ----------------------------------------------------------------------
 # cam-b3lyp/aug-cc-pvdz opt nosymm td(root=3,nstates=20) SCRF=PCM int(
 grid=ultrafine)
 ----------------------------------------------------------------------
 1/14=-1,18=20,19=15,26=3,38=1/1,3;
 2/9=110,12=2,15=1,17=6,18=5,40=1/2;
 3/5=16,7=10,11=2,16=1,25=1,30=1,70=2201,71=1,72=1,74=-40,75=-5,82=47/1,2,8,3;
 4//1;
 5/5=2,38=5/2;
 8/6=1,10=1,107=3,108=20/1;
 9/8=3,15=2,41=20,42=1/14;
 10/5=4,31=1/2;
 6/7=2,8=2,9=2,10=2/1;
 7/12=6,13=5,14=3,30=1/1,2,3,16;
 1/14=-1,18=20,19=15/3(2);
 2/9=110,15=1/2;
 99//99;
 2/9=110,15=1/2;
 3/5=16,7=10,11=2,16=1,25=1,30=1,70=2205,71=1,74=-40,75=-5,82=47/1,2,8,3;
 4/5=5,16=3/1;
 5/5=2,38=5/2;
 8/6=1,10=1,107=3,108=20/1;
 9/8=3,15=2,41=20,42=1,49=4/14;
 10/5=4,31=1/2;
 7/12=6,13=5,14=3,30=1/1,2,3,16;
 1/14=-1,18=20,19=15/3(-8);
 2/9=110,15=1/2;
 6/7=2,8=2,9=2,10=2/1;
 99//99;
 -----
 Title
 -----
 Symbolic Z-matrix:
 Charge =  0 Multiplicity = 1
 6                    -0.14841   0.38941  -0.00001 
 7                     1.07589  -0.16092   0.00006 
 8                    -1.19901  -0.24437  -0.00008 
 1                     1.18201  -1.16665   0.00009 
 1                     1.90298   0.41696   0.00015 
 1                    -0.13369   1.49466  -0.00001 
 

 GradGradGradGradGradGradGradGradGradGradGradGradGradGradGradGradGradGrad
 Berny optimization.
 Initialization pass.
                           ----------------------------
                           !    Initial Parameters    !
                           ! (Angstroms and Degrees)  !
 --------------------------                            --------------------------
 ! Name  Definition              Value          Derivative Info.                !
 --------------------------------------------------------------------------------
 ! R1    R(1,2)                  1.3423         estimate D2E/DX2                !
 ! R2    R(1,3)                  1.227          estimate D2E/DX2                !
 ! R3    R(1,6)                  1.1053         estimate D2E/DX2                !
 ! R4    R(2,4)                  1.0113         estimate D2E/DX2                !
 ! R5    R(2,5)                  1.009          estimate D2E/DX2                !
 ! A1    A(2,1,3)              124.6949         estimate D2E/DX2                !
 ! A2    A(2,1,6)              113.4417         estimate D2E/DX2                !
 ! A3    A(3,1,6)              121.8634         estimate D2E/DX2                !
 ! A4    A(1,2,4)              120.2276         estimate D2E/DX2                !
 ! A5    A(1,2,5)              120.8539         estimate D2E/DX2                !
 ! A6    A(4,2,5)              118.9185         estimate D2E/DX2                !
 ! D1    D(3,1,2,4)             -0.0023         estimate D2E/DX2                !
 ! D2    D(3,1,2,5)           -179.9974         estimate D2E/DX2                !
 ! D3    D(6,1,2,4)            179.9982         estimate D2E/DX2                !
 ! D4    D(6,1,2,5)              0.0031         estimate D2E/DX2                !
 --------------------------------------------------------------------------------
 Trust Radius=3.00D-01 FncErr=1.00D-07 GrdErr=1.00D-06
 Number of steps in this run=  25 maximum allowed number of steps= 100.
 GradGradGradGradGradGradGradGradGradGradGradGradGradGradGradGradGradGrad

                          Input orientation:                          
 ---------------------------------------------------------------------
 Center     Atomic      Atomic             Coordinates (Angstroms)
 Number     Number       Type             X           Y           Z
 ---------------------------------------------------------------------
      1          6           0       -0.148406    0.389411   -0.000008
      2          7           0        1.075890   -0.160923    0.000060
      3          8           0       -1.199011   -0.244372   -0.000076
      4          1           0        1.182007   -1.166648    0.000092
      5          1           0        1.902982    0.416959    0.000154
      6          1           0       -0.133692    1.494659   -0.000005
 ---------------------------------------------------------------------
                    Distance matrix (angstroms):
                    1          2          3          4          5
     1  C    0.000000
     2  N    1.342300   0.000000
     3  O    1.226969   2.276431   0.000000
     4  H    2.047271   1.011308   2.553398   0.000000
     5  H    2.051573   1.008974   3.171706   1.740005   0.000000
     6  H    1.105346   2.050376   2.039395   2.968774   2.304231
                    6
     6  H    0.000000
 Symmetry turned off by external request.
 Stoichiometry    CH3NO
 Framework group  C1[X(CH3NO)]
 Deg. of freedom    12
 Full point group                 C1      NOp   1
 Rotational constants (GHZ):     73.1415518     11.3903967      9.8555789
 Standard basis: Aug-CC-pVDZ (5D, 7F)
 Integral buffers will be    131072 words long.
 Raffenetti 2 integral format.
 Two-electron integral symmetry is turned off.
    96 basis functions,   162 primitive gaussians,   102 cartesian basis functions
    12 alpha electrons       12 beta electrons
       nuclear repulsion energy        71.1695258840 Hartrees.
 NAtoms=    6 NActive=    6 NUniq=    6 SFac= 7.50D-01 NAtFMM=   80 NAOKFM=F Big=F
 Standard density basis: Auto (5D, 7F)
   327 Density fitting functions
 ------------------------------------------------------------------------------
 Polarizable Continuum Model (PCM)
 =================================
 Model                : PCM.
 Atomic radii         : UFF (Universal Force Field).
 Polarization charges : Total charges.
 Charge compensation  : None.
 Solution method      : Matrix inversion.
 Cavity type          : Scaled VdW (van der Waals Surface) (Alpha=1.100).
 Cavity algorithm     : GePol (No added spheres)
                        Default sphere list used, NSphG=    6.
                        Lebedev-Laikov grids with approx.  5.0 points / Ang**2.
                        Smoothing algorithm: Karplus/York (Gamma=1.0000).
                        Polarization charges: spherical gaussians, with
                                              point-specific exponents (IZeta= 3).
                        Self-potential: point-specific (ISelfS= 7).
                        Self-field    : sphere-specific E.n sum rule (ISelfD= 2).
 1st derivatives      : Analytical E(r).r(x)/FMM algorithm (CHGder, D1EAlg=3).
                        Cavity 1st derivative terms included.
 Solvent              : Water, Eps=  78.355300 Eps(inf)=   1.777849
 ------------------------------------------------------------------------------
 Spheres list:
 ISph  on   Nord    Re0     Alpha      Xe            Ye            Ze
    1   C      1    1.926   1.100     -0.148406      0.389411     -0.000008
    2   N      2    1.830   1.100      1.075890     -0.160923      0.000060
    3   O      3    1.750   1.100     -1.199011     -0.244372     -0.000076
    4   H      4    1.443   1.100      1.182007     -1.166648      0.000092
    5   H      5    1.443   1.100      1.902982      0.416959      0.000154
    6   H      6    1.443   1.100     -0.133692      1.494659     -0.000005
 ------------------------------------------------------------------------------
 One-electron integrals computed using PRISM.
 NBasis=    96 RedAO= T  NBF=    96
 NBsUse=    96 1.00D-06 NBFU=    96
 Harris functional with IExCor=20419 diagonalized for initial guess.
 ExpMin= 2.97D-02 ExpMax= 1.17D+04 ExpMxC= 4.01D+02 IAcc=3 IRadAn=         5 AccDes= 0.00D+00
 HarFok:  IExCor=20419 AccDes= 0.00D+00 IRadAn=         5 IDoV= 1
 ScaDFX=  1.000000  1.000000  1.000000  1.000000
 FoFCou: FMM=F IPFlag=           0 FMFlag=      100000 FMFlg1=           0
         NFxFlg=           0 DoJE=T BraDBF=F KetDBF=T FulRan=T
         Omega=  0.000000  0.000000  1.000000  0.000000  0.000000 ICntrl=     500 IOpCl=  0
         NMat0=    1 NMatS0=    1 NMatT0=    0 NMatD0=    1 NMtDS0=    0 NMtDT0=    0
         I1Cent=           4 NGrid=           0.
 Symmetry not used in FoFCou.
 Requested convergence on RMS density matrix=1.00D-08 within 128 cycles.
 Requested convergence on MAX density matrix=1.00D-06.
 Requested convergence on             energy=1.00D-06.
 No special actions if energy rises.
 FoFJK:  IHMeth= 1 ICntrl=     0 DoSepK=T KAlg= 1 I1Cent= 0 FoldK=F
 FoFJK:  IHMeth= 1 ICntrl=     0 DoSepK=T KAlg= 1 I1Cent= 0 FoldK=F
 FoFJK:  IHMeth= 1 ICntrl=     0 DoSepK=T KAlg= 1 I1Cent= 0 FoldK=F
 FoFJK:  IHMeth= 1 ICntrl=     0 DoSepK=T KAlg= 1 I1Cent= 0 FoldK=F
 FoFJK:  IHMeth= 1 ICntrl=     0 DoSepK=T KAlg= 1 I1Cent= 0 FoldK=F
 FoFJK:  IHMeth= 1 ICntrl=     0 DoSepK=T KAlg= 1 I1Cent= 0 FoldK=F
 FoFJK:  IHMeth= 1 ICntrl=     0 DoSepK=T KAlg= 1 I1Cent= 0 FoldK=F
 FoFJK:  IHMeth= 1 ICntrl=     0 DoSepK=T KAlg= 1 I1Cent= 0 FoldK=F
 FoFJK:  IHMeth= 1 ICntrl=     0 DoSepK=T KAlg= 1 I1Cent= 0 FoldK=F
 FoFJK:  IHMeth= 1 ICntrl=     0 DoSepK=T KAlg= 1 I1Cent= 0 FoldK=F
 FoFJK:  IHMeth= 1 ICntrl=     0 DoSepK=T KAlg= 1 I1Cent= 0 FoldK=F
 Error on total polarization charges =  0.01050
 SCF Done:  E(RCAM-B3LYP) =  -169.864201704     A.U. after   11 cycles
             Convg  =    0.4600D-08             -V/T =  2.0064
 ExpMin= 2.97D-02 ExpMax= 1.17D+04 ExpMxC= 4.01D+02 IAcc=3 IRadAn=         5 AccDes= 0.00D+00
 HarFok:  IExCor=  205 AccDes= 0.00D+00 IRadAn=         5 IDoV=-2
 ScaDFX=  1.000000  1.000000  1.000000  1.000000
 Range of M.O.s used for correlation:     4    96
 NBasis=    96 NAE=    12 NBE=    12 NFC=     3 NFV=     0
 NROrb=     93 NOA=     9 NOB=     9 NVA=    84 NVB=    84

 **** Warning!!: The largest alpha MO coefficient is  0.18832976D+02

 NEqPCM:  Using equilibrium solvation (IEInf=0, Eps=  78.3553, EpsInf=   1.7778)
    80 initial guesses have been made.
 Convergence on wavefunction:    0.000001000000000
 Iteration     1 Dimension    80 NMult    80
 CISAX will form    80 AO SS matrices at one time.
 FoFJK:  IHMeth= 1 ICntrl=     0 DoSepK=T KAlg= 1 I1Cent= 0 FoldK=F
 FoFJK:  IHMeth= 1 ICntrl=     0 DoSepK=T KAlg= 1 I1Cent= 0 FoldK=F
 New state      1 was old state      6
 New state      2 was old state      1
 New state      3 was old state      2
 New state      4 was old state      3
 New state      6 was old state      4
 New state      8 was old state     11
 New state     10 was old state      8
 New state     11 was old state     10
 New state     13 was old state     14
 New state     14 was old state     13
 No map to state     17
 New state     20 was old state     17
 Iteration     2 Dimension   120 NMult   120
 FoFJK:  IHMeth= 1 ICntrl=     0 DoSepK=T KAlg= 1 I1Cent= 0 FoldK=F
 FoFJK:  IHMeth= 1 ICntrl=     0 DoSepK=T KAlg= 1 I1Cent= 0 FoldK=F
 New state      7 was old state      8
 New state      8 was old state      7
 New state     13 was old state     14
 New state     14 was old state     13
 New state     16 was old state     17
 New state     17 was old state     16
 New state     19 was old state     20
 New state     20 was old state     19
 Iteration     3 Dimension   160 NMult   160
 FoFJK:  IHMeth= 1 ICntrl=     0 DoSepK=T KAlg= 1 I1Cent= 0 FoldK=F
 FoFJK:  IHMeth= 1 ICntrl=     0 DoSepK=T KAlg= 1 I1Cent= 0 FoldK=F
 Iteration     4 Dimension   200 NMult   200
 FoFJK:  IHMeth= 1 ICntrl=     0 DoSepK=T KAlg= 1 I1Cent= 0 FoldK=F
 FoFJK:  IHMeth= 1 ICntrl=     0 DoSepK=T KAlg= 1 I1Cent= 0 FoldK=F
 Iteration     5 Dimension   240 NMult   240
 FoFJK:  IHMeth= 1 ICntrl=     0 DoSepK=T KAlg= 1 I1Cent= 0 FoldK=F
 FoFJK:  IHMeth= 1 ICntrl=     0 DoSepK=T KAlg= 1 I1Cent= 0 FoldK=F
 Iteration     6 Dimension   280 NMult   280
 FoFJK:  IHMeth= 1 ICntrl=     0 DoSepK=T KAlg= 1 I1Cent= 0 FoldK=F
 FoFJK:  IHMeth= 1 ICntrl=     0 DoSepK=T KAlg= 1 I1Cent= 0 FoldK=F
 Iteration     7 Dimension   306 NMult   306
 FoFJK:  IHMeth= 1 ICntrl=     0 DoSepK=T KAlg= 1 I1Cent= 0 FoldK=F
 FoFJK:  IHMeth= 1 ICntrl=     0 DoSepK=T KAlg= 1 I1Cent= 0 FoldK=F
 Iteration     8 Dimension   310 NMult   310
 FoFJK:  IHMeth= 1 ICntrl=     0 DoSepK=T KAlg= 1 I1Cent= 0 FoldK=F
 FoFJK:  IHMeth= 1 ICntrl=     0 DoSepK=T KAlg= 1 I1Cent= 0 FoldK=F
 ***********************************************************************
 Excited states from <AA,BB:AA,BB> singles matrix:
 ***********************************************************************
 
 Ground to excited state transition electric dipole moments (Au):
       state          X           Y           Z        Dip. S.      Osc.
         1         0.0000      0.0000      0.0822      0.0068      0.0010
         2         0.0464      0.1473      0.0001      0.0238      0.0041
         3        -0.0001      0.0000      0.2981      0.0889      0.0154
         4         1.3664      0.0327      0.0001      1.8682      0.3332
         5        -0.3274      0.8521      0.0000      0.8333      0.1562
         6         0.0000     -0.0001      0.0624      0.0039      0.0007
         7         0.7165      0.2569     -0.0001      0.5794      0.1134
         8        -0.0001     -0.0001     -0.4373      0.1912      0.0377
         9         0.0000      0.0000      0.1922      0.0369      0.0076
        10        -0.1655     -0.0543      0.0000      0.0303      0.0064
        11         0.1199     -0.1249      0.0000      0.0300      0.0066
        12         0.0000      0.0000      0.1840      0.0338      0.0076
        13        -0.0770     -0.0200     -0.0001      0.0063      0.0014
        14         0.0000      0.0000     -0.2236      0.0500      0.0115
        15         0.1673      0.0592      0.0000      0.0315      0.0077
        16         0.0000      0.0000     -0.0739      0.0055      0.0014
        17         0.0000      0.0000     -0.1805      0.0326      0.0082
        18        -0.0001     -0.0002     -0.1090      0.0119      0.0030
        19        -0.1834     -0.3992     -0.0001      0.1930      0.0497
        20        -0.0001     -0.0002      0.1933      0.0374      0.0096
 Ground to excited state transition velocity dipole moments (Au):
       state          X           Y           Z        Dip. S.      Osc.
         1         0.0000      0.0000     -0.0210      0.0004      0.0014
         2        -0.0100     -0.0389      0.0000      0.0016      0.0042
         3         0.0000      0.0000     -0.0748      0.0056      0.0144
         4        -0.3597     -0.0077      0.0000      0.1295      0.3227
         5         0.0919     -0.2362      0.0000      0.0642      0.1522
         6         0.0000      0.0000     -0.0185      0.0003      0.0008
         7        -0.2085     -0.0741      0.0000      0.0490      0.1112
         8         0.0000      0.0000      0.1255      0.0158      0.0356
         9         0.0000      0.0000     -0.0607      0.0037      0.0080
        10         0.0437      0.0149      0.0000      0.0021      0.0044
        11        -0.0375      0.0398      0.0000      0.0030      0.0060
        12         0.0000      0.0000     -0.0591      0.0035      0.0070
        13         0.0160      0.0060      0.0000      0.0003      0.0006
        14         0.0000      0.0000      0.0774      0.0060      0.0116
        15        -0.0606     -0.0149      0.0000      0.0039      0.0071
        16         0.0000      0.0000      0.0288      0.0008      0.0015
        17         0.0000      0.0000      0.0719      0.0052      0.0092
        18         0.0000      0.0001      0.0307      0.0009      0.0016
        19         0.0672      0.1554      0.0000      0.0287      0.0495
        20         0.0000      0.0001     -0.0730      0.0053      0.0092
 Ground to excited state transition magnetic dipole moments (Au):
       state          X           Y           Z
         1        -0.9740     -0.3873     -0.0001
         2         0.0000      0.0001      0.5412
         3         0.0064      0.5643     -0.0001
         4         0.0000      0.0000      0.2587
         5         0.0000      0.0000     -0.1128
         6         0.0418     -0.0090      0.0000
         7         0.0000      0.0001      0.5025
         8        -0.0404      0.3354     -0.0001
         9        -0.0626      0.1138      0.0000
        10         0.0000      0.0000      0.0845
        11         0.0000     -0.0001     -0.0164
        12         0.1077     -0.2556      0.0000
        13         0.0000     -0.0001      0.1960
        14        -0.0774     -0.5400     -0.0001
        15         0.0000      0.0000     -0.3668
        16        -0.9732      0.8013      0.0000
        17         0.2623     -0.6644      0.0000
        18         0.1768     -0.5239      0.0000
        19        -0.0001      0.0004     -0.0263
        20         0.0035     -0.1046      0.0000
 <0|del|b> * <b|rxdel|0> + <0|del|b> * <b|delr+rdel|0>
 Rotatory Strengths (R) in cgs (10**-40 erg-esu-cm/Gauss)
       state          XX          YY          ZZ    R(velocity)
         1         0.0011      0.0052      0.0017      0.0027
 Total R(velocity) tensor for State=          1
                 1             2             3 
      1   0.110443D-02 -0.115851D-02  0.000000D+00
      2   0.103432D-02  0.523382D-02  0.000000D+00
      3  -0.288462D+02 -0.130520D+02  0.172735D-02
         2        -0.0262     -0.0048      0.0006     -0.0101
 Total R(velocity) tensor for State=          2
                 1             2             3 
      1  -0.262268D-01 -0.186277D-02  0.253178D+02
      2  -0.758332D-02 -0.484289D-02  0.199546D+02
      3   0.424875D+01 -0.109556D+01  0.632867D-03
         3         0.0277      0.0057      0.0007      0.0114
 Total R(velocity) tensor for State=          3
                 1             2             3 
      1   0.277001D-01 -0.566982D-02  0.409280D-05
      2   0.784762D-02  0.574073D-02  0.190879D-05
      3  -0.182200D+01  0.969135D+01  0.681105D-03
         4        -0.0107     -0.0090      0.0046     -0.0050
 Total R(velocity) tensor for State=          4
                 1             2             3 
      1  -0.106549D-01 -0.119266D-01  0.194034D+03
      2   0.367718D-02 -0.903324D-02 -0.619726D+02
      3  -0.598927D+00  0.280613D+02  0.458176D-02
         5        -0.0005      0.0009     -0.0028     -0.0008
 Total R(velocity) tensor for State=          5
                 1             2             3 
      1  -0.548710D-03 -0.589568D-03 -0.224316D+02
      2   0.115585D-02  0.949854D-03  0.298328D+02
      3   0.190214D+02  0.739973D+01 -0.276521D-02
         6        -0.0017     -0.0008      0.0008     -0.0006
 Total R(velocity) tensor for State=          6
                 1             2             3 
      1  -0.171410D-02 -0.718180D-03  0.000000D+00
      2  -0.516912D-02 -0.803579D-03  0.000000D+00
      3  -0.135621D+01  0.415202D+00  0.809637D-03
         7         0.0005      0.0149      0.0101      0.0085
 Total R(velocity) tensor for State=          7
                 1             2             3 
      1   0.538735D-03  0.436639D-01  0.207254D+03
      2  -0.587463D-02  0.148685D-01 -0.760412D+01
      3  -0.620806D+01  0.174641D+02  0.101053D-01
         8        -0.0129     -0.0141      0.0037     -0.0078
 Total R(velocity) tensor for State=          8
                 1             2             3 
      1  -0.128824D-01 -0.378815D-01  0.107358D-04
      2   0.661368D-02 -0.141422D-01  0.000000D+00
      3   0.618290D+01 -0.331765D+02  0.374961D-02
         9         0.0012      0.0000     -0.0007      0.0002
 Total R(velocity) tensor for State=          9
                 1             2             3 
      1   0.118168D-02 -0.139574D-02  0.000000D+00
      2  -0.561123D-03  0.363601D-04  0.000000D+00
      3  -0.380971D+01  0.320862D-03 -0.677637D-03
        10        -0.0001      0.0006     -0.0003      0.0001
 Total R(velocity) tensor for State=         10
                 1             2             3 
      1  -0.741230D-04 -0.703752D-03 -0.104572D+02
      2  -0.247265D-03  0.616596D-03 -0.124592D+01
      3  -0.266487D+01  0.782856D+01 -0.319292D-03
        11        -0.0002     -0.0045     -0.0009     -0.0018
 Total R(velocity) tensor for State=         11
                 1             2             3 
      1  -0.201066D-03 -0.623724D-02 -0.169255D+02
      2  -0.804807D-02 -0.446040D-02  0.871933D+01
      3   0.899208D+00  0.846471D+00 -0.886715D-03
        12         0.0002      0.0048     -0.0002      0.0016
 Total R(velocity) tensor for State=         12
                 1             2             3 
      1   0.171601D-03  0.702666D-02  0.000000D+00
      2   0.780809D-02  0.476047D-02  0.106634D-05
      3   0.638446D+00  0.294072D+01 -0.214292D-03
        13         0.0026      0.0061     -0.0017      0.0023
 Total R(velocity) tensor for State=         13
                 1             2             3 
      1   0.259713D-02  0.408561D-02 -0.275256D+01
      2  -0.358300D-02  0.606983D-02  0.878597D+00
      3   0.841917D+00 -0.225424D+01 -0.172814D-02
        14        -0.0026     -0.0056      0.0025     -0.0019
 Total R(velocity) tensor for State=         14
                 1             2             3 
      1  -0.260672D-02 -0.326675D-02  0.000000D+00
      2   0.296628D-02 -0.564343D-02  0.000000D+00
      3   0.170893D+02  0.352193D+02  0.247310D-02
        15         0.0005     -0.0005     -0.0013     -0.0004
 Total R(velocity) tensor for State=         15
                 1             2             3 
      1   0.498560D-03 -0.266128D-02 -0.157223D+02
      2   0.203963D-03 -0.545157D-03  0.696253D+01
      3  -0.132758D+01  0.538753D+01 -0.130193D-02
        16        -0.0032      0.0013     -0.0005     -0.0008
 Total R(velocity) tensor for State=         16
                 1             2             3 
      1  -0.321190D-02  0.191328D-02  0.000000D+00
      2  -0.360450D-02  0.132653D-02  0.000000D+00
      3   0.169369D+02 -0.190568D+02 -0.458219D-03
        17        -0.0018      0.0014     -0.0032     -0.0012
 Total R(velocity) tensor for State=         17
                 1             2             3 
      1  -0.176278D-02 -0.530958D-03  0.000000D+00
      2  -0.143895D-02  0.140598D-02  0.000000D+00
      3  -0.264182D+02  0.180162D+02 -0.320837D-02
        18        -0.0535      0.0010     -0.0149     -0.0225
 Total R(velocity) tensor for State=         18
                 1             2             3 
      1  -0.535376D-01  0.370267D-01 -0.212725D-04
      2   0.393710D-02  0.993092D-03 -0.879304D-05
      3  -0.761796D+01  0.954170D+01 -0.149371D-01
        19         0.0616     -0.0061      0.0325      0.0293
 Total R(velocity) tensor for State=         19
                 1             2             3 
      1   0.615593D-01 -0.150193D-01 -0.588022D+02
      2   0.211484D-01 -0.605823D-02 -0.156468D+02
      3   0.539487D+02 -0.233285D+02  0.325293D-01
        20        -0.0084      0.0075     -0.0141     -0.0050
 Total R(velocity) tensor for State=         20
                 1             2             3 
      1  -0.836612D-02 -0.857233D-02 -0.163683D-04
      2  -0.260364D-01  0.746043D-02 -0.750953D-05
      3   0.248904D+00 -0.112231D+02 -0.141153D-01
 1/2[<0|r|b>*<b|rxdel|0> + (<0|rxdel|b>*<b|r|0>)*]
 Rotatory Strengths (R) in cgs (10**-40 erg-esu-cm/Gauss)
       state          XX          YY          ZZ     R(length)     R(au)
         1         0.0061     -0.0009      0.0032      0.0028      0.0000
         2         0.0008     -0.0110     -0.0207     -0.0103      0.0000
         3         0.0002      0.0114      0.0229      0.0115      0.0000
         4        -0.0015      0.0002     -0.0141     -0.0051      0.0000
         5         0.0016     -0.0029     -0.0011     -0.0008      0.0000
         6        -0.0003     -0.0006     -0.0008     -0.0006      0.0000
         7         0.0216     -0.0158      0.0206      0.0088      0.0000
         8        -0.0039      0.0178     -0.0379     -0.0080      0.0000
         9        -0.0016      0.0005      0.0016      0.0002      0.0000
        10         0.0006      0.0000     -0.0002      0.0001      0.0000
        11        -0.0017     -0.0046      0.0005     -0.0019      0.0000
        12         0.0029      0.0041     -0.0019      0.0017      0.0000
        13        -0.0015     -0.0021      0.0098      0.0021      0.0000
        14         0.0011      0.0038     -0.0101     -0.0017      0.0000
        15        -0.0012      0.0004     -0.0003     -0.0004      0.0000
        16         0.0041     -0.0042     -0.0024     -0.0009      0.0000
        17        -0.0024     -0.0064      0.0048     -0.0013      0.0000
        18         0.0155     -0.0815     -0.0007     -0.0222      0.0000
        19        -0.0112      0.0993     -0.0012      0.0290      0.0001
        20         0.0003     -0.0176      0.0025     -0.0049      0.0000
  1/2[<0|del|b>*<b|r|0> + (<0|r|b>*<b|del|0>)*] (Au)
       state          X           Y           Z        Dip. S.   Osc.(frdel)
         1         0.0000      0.0000     -0.0017      0.0017      0.0011
         2        -0.0005     -0.0057      0.0000      0.0062      0.0041
         3         0.0000      0.0000     -0.0223      0.0223      0.0149
         4        -0.4915     -0.0003      0.0000      0.4918      0.3279
         5        -0.0301     -0.2012      0.0000      0.2313      0.1542
         6         0.0000      0.0000     -0.0012      0.0012      0.0008
         7        -0.1494     -0.0190      0.0000      0.1684      0.1123
         8         0.0000      0.0000     -0.0549      0.0549      0.0366
         9         0.0000      0.0000     -0.0117      0.0117      0.0078
        10        -0.0072     -0.0008      0.0000      0.0080      0.0054
        11        -0.0045     -0.0050      0.0000      0.0095      0.0063
        12         0.0000      0.0000     -0.0109      0.0109      0.0072
        13        -0.0012     -0.0001      0.0000      0.0013      0.0009
        14         0.0000      0.0000     -0.0173      0.0173      0.0115
        15        -0.0101     -0.0009      0.0000      0.0110      0.0073
        16         0.0000      0.0000     -0.0021      0.0021      0.0014
        17         0.0000      0.0000     -0.0130      0.0130      0.0087
        18         0.0000      0.0000     -0.0033      0.0033      0.0022
        19        -0.0123     -0.0620      0.0000      0.0744      0.0496
        20         0.0000      0.0000     -0.0141      0.0141      0.0094
 Ground to excited state transition densities written to RWF  633

 Excitation energies and oscillator strengths:
 
 Excited state symmetry could not be determined.
 Excited State   1:      Singlet-?Sym    5.7585 eV  215.31 nm  f=0.0010  <S**2>=0.000
      12 -> 16         0.67201
      12 -> 17        -0.19817
 
 Excited state symmetry could not be determined.
 Excited State   2:      Singlet-?Sym    6.9828 eV  177.56 nm  f=0.0041  <S**2>=0.000
      11 -> 16         0.21060
      12 -> 13         0.58280
      12 -> 15         0.24535
      12 -> 18        -0.11639
      12 -> 20        -0.11128
 
 Excited state symmetry could not be determined.
 Excited State   3:      Singlet-?Sym    7.0555 eV  175.73 nm  f=0.0154  <S**2>=0.000
      11 -> 13         0.66495
      11 -> 14         0.10376
      11 -> 19        -0.13325
      11 -> 20        -0.13321
 This state for optimization and/or second-order correction.
 Copying the excited state density for this state as the 1-particle RhoCI density.
 
 Excited state symmetry could not be determined.
 Excited State   4:      Singlet-?Sym    7.2786 eV  170.34 nm  f=0.3332  <S**2>=0.000
      11 -> 16         0.55414
      11 -> 17        -0.24884
      12 -> 13        -0.12092
      12 -> 14         0.24545
      12 -> 15        -0.13901
      12 -> 18         0.10071
 
 Excited state symmetry could not be determined.
 Excited State   5:      Singlet-?Sym    7.6531 eV  162.01 nm  f=0.1562  <S**2>=0.000
      11 -> 16        -0.16103
      12 -> 14         0.58622
      12 -> 15         0.25123
      12 -> 18        -0.12116
      12 -> 19        -0.13061
      12 -> 21        -0.10057
 
 Excited state symmetry could not be determined.
 Excited State   6:      Singlet-?Sym    7.7885 eV  159.19 nm  f=0.0007  <S**2>=0.000
      11 -> 13        -0.10747
      11 -> 14         0.63831
      11 -> 15         0.18600
      11 -> 21        -0.15284
 
 Excited state symmetry could not be determined.
 Excited State   7:      Singlet-?Sym    7.9863 eV  155.25 nm  f=0.1134  <S**2>=0.000
      11 -> 16         0.13445
      12 -> 13        -0.34178
      12 -> 14        -0.17914
      12 -> 15         0.50236
      12 -> 18        -0.23171
 
 Excited state symmetry could not be determined.
 Excited State   8:      Singlet-?Sym    8.0390 eV  154.23 nm  f=0.0377  <S**2>=0.000
      11 -> 14        -0.17832
      11 -> 15         0.64039
      11 -> 18        -0.16359
      11 -> 23        -0.10793
 
 Excited state symmetry could not be determined.
 Excited State   9:      Singlet-?Sym    8.3858 eV  147.85 nm  f=0.0076  <S**2>=0.000
      12 -> 16         0.19331
      12 -> 17         0.66986
 
 Excited state symmetry could not be determined.
 Excited State  10:      Singlet-?Sym    8.6828 eV  142.79 nm  f=0.0064  <S**2>=0.000
      11 -> 16         0.28933
      11 -> 17         0.63523
 
 Excited state symmetry could not be determined.
 Excited State  11:      Singlet-?Sym    9.0330 eV  137.26 nm  f=0.0066  <S**2>=0.000
      12 -> 15         0.29463
      12 -> 18         0.61247
      12 -> 19         0.12520
 
 Excited state symmetry could not be determined.
 Excited State  12:      Singlet-?Sym    9.1128 eV  136.05 nm  f=0.0076  <S**2>=0.000
      11 -> 15         0.13499
      11 -> 18         0.65580
      11 -> 24         0.14675
 
 Excited state symmetry could not be determined.
 Excited State  13:      Singlet-?Sym    9.3222 eV  133.00 nm  f=0.0014  <S**2>=0.000
      12 -> 14         0.14982
      12 -> 18        -0.11067
      12 -> 19         0.64827
      12 -> 21        -0.10073
 
 Excited state symmetry could not be determined.
 Excited State  14:      Singlet-?Sym    9.3827 eV  132.14 nm  f=0.0115  <S**2>=0.000
      11 -> 13         0.11837
      11 -> 19         0.67057
 
 Excited state symmetry could not be determined.
 Excited State  15:      Singlet-?Sym    9.9732 eV  124.32 nm  f=0.0077  <S**2>=0.000
      12 -> 13         0.10389
      12 -> 14        -0.10627
      12 -> 20         0.57762
      12 -> 23         0.32350
      12 -> 24         0.10799
 
 Excited state symmetry could not be determined.
 Excited State  16:      Singlet-?Sym   10.1415 eV  122.25 nm  f=0.0014  <S**2>=0.000
       9 -> 16         0.64493
       9 -> 17        -0.18743
      11 -> 20         0.11274
      11 -> 23         0.12451
 
 Excited state symmetry could not be determined.
 Excited State  17:      Singlet-?Sym   10.2406 eV  121.07 nm  f=0.0082  <S**2>=0.000
       9 -> 16        -0.14596
      11 -> 13         0.14259
      11 -> 20         0.61702
      11 -> 21         0.16317
      11 -> 23         0.14752
 
 Excited state symmetry could not be determined.
 Excited State  18:      Singlet-?Sym   10.4822 eV  118.28 nm  f=0.0030  <S**2>=0.000
       9 -> 16        -0.10686
      11 -> 20        -0.15572
      11 -> 23         0.57145
      11 -> 24         0.24050
      11 -> 26        -0.13237
      12 -> 22         0.12950
 
 Excited state symmetry could not be determined.
 Excited State  19:      Singlet-?Sym   10.5065 eV  118.01 nm  f=0.0497  <S**2>=0.000
      11 -> 22        -0.20874
      12 -> 14         0.10823
      12 -> 20        -0.21045
      12 -> 21         0.39660
      12 -> 23         0.40132
      12 -> 24         0.21772
 
 Excited state symmetry could not be determined.
 Excited State  20:      Singlet-?Sym   10.5326 eV  117.72 nm  f=0.0096  <S**2>=0.000
      11 -> 14        -0.11893
      11 -> 20         0.12862
      11 -> 21        -0.34909
      11 -> 23        -0.10406
      12 -> 22         0.54700
      12 -> 25        -0.12297
 SavETr:  write IOETrn=   770 NScale= 10 NData=  16 NLR=1 LETran=     370.
 FoFJK:  IHMeth= 1 ICntrl=     0 DoSepK=T KAlg= 1 I1Cent= 0 FoldK=F
 FoFJK:  IHMeth= 1 ICntrl=     0 DoSepK=T KAlg= 1 I1Cent= 0 FoldK=F
          IDoAtm=111111
 NEqPCM:  Using equilibrium solvation (IEInf=0, Eps=  78.3553, EpsInf=   1.7778)
          Differentiating once with respect to electric field.
                with respect to dipole field.
          Differentiating once with respect to nuclear coordinates.
          There are     1 degrees of freedom in the 1st order CPHF.  IDoFFX=0.
 FoFJK:  IHMeth= 1 ICntrl=     0 DoSepK=T KAlg= 1 I1Cent= 0 FoldK=F
 LinEq1:  Iter=  0 NonCon=     1 RMS=2.56D-02 Max=2.39D-01
 AX will form     1 AO Fock derivatives at one time.
 FoFJK:  IHMeth= 1 ICntrl=     0 DoSepK=T KAlg= 1 I1Cent= 0 FoldK=F
 LinEq1:  Iter=  1 NonCon=     1 RMS=7.30D-03 Max=1.12D-01
 FoFJK:  IHMeth= 1 ICntrl=     0 DoSepK=T KAlg= 1 I1Cent= 0 FoldK=F
 LinEq1:  Iter=  2 NonCon=     1 RMS=3.97D-03 Max=2.84D-02
 FoFJK:  IHMeth= 1 ICntrl=     0 DoSepK=T KAlg= 1 I1Cent= 0 FoldK=F
 LinEq1:  Iter=  3 NonCon=     1 RMS=2.29D-03 Max=5.18D-02
 FoFJK:  IHMeth= 1 ICntrl=     0 DoSepK=T KAlg= 1 I1Cent= 0 FoldK=F
 LinEq1:  Iter=  4 NonCon=     1 RMS=1.06D-03 Max=8.91D-03
 FoFJK:  IHMeth= 1 ICntrl=     0 DoSepK=T KAlg= 1 I1Cent= 0 FoldK=F
 LinEq1:  Iter=  5 NonCon=     1 RMS=1.38D-04 Max=1.63D-03
 FoFJK:  IHMeth= 1 ICntrl=     0 DoSepK=T KAlg= 1 I1Cent= 0 FoldK=F
 LinEq1:  Iter=  6 NonCon=     1 RMS=2.38D-05 Max=1.34D-04
 FoFJK:  IHMeth= 1 ICntrl=     0 DoSepK=T KAlg= 1 I1Cent= 0 FoldK=F
 LinEq1:  Iter=  7 NonCon=     1 RMS=4.78D-06 Max=3.11D-05
 FoFJK:  IHMeth= 1 ICntrl=     0 DoSepK=T KAlg= 1 I1Cent= 0 FoldK=F
 LinEq1:  Iter=  8 NonCon=     1 RMS=8.26D-07 Max=6.95D-06
 FoFJK:  IHMeth= 1 ICntrl=     0 DoSepK=T KAlg= 1 I1Cent= 0 FoldK=F
 LinEq1:  Iter=  9 NonCon=     1 RMS=1.22D-07 Max=8.91D-07
 FoFJK:  IHMeth= 1 ICntrl=     0 DoSepK=T KAlg= 1 I1Cent= 0 FoldK=F
 LinEq1:  Iter= 10 NonCon=     1 RMS=2.24D-08 Max=2.17D-07
 FoFJK:  IHMeth= 1 ICntrl=     0 DoSepK=T KAlg= 1 I1Cent= 0 FoldK=F
 LinEq1:  Iter= 11 NonCon=     1 RMS=4.11D-09 Max=4.36D-08
 FoFJK:  IHMeth= 1 ICntrl=     0 DoSepK=T KAlg= 1 I1Cent= 0 FoldK=F
 LinEq1:  Iter= 12 NonCon=     1 RMS=6.67D-10 Max=4.85D-09
 FoFJK:  IHMeth= 1 ICntrl=     0 DoSepK=T KAlg= 1 I1Cent= 0 FoldK=F
 LinEq1:  Iter= 13 NonCon=     1 RMS=1.25D-10 Max=8.73D-10
 FoFJK:  IHMeth= 1 ICntrl=     0 DoSepK=T KAlg= 1 I1Cent= 0 FoldK=F
 LinEq1:  Iter= 14 NonCon=     0 RMS=1.73D-11 Max=1.91D-10
 Linear equations converged to 1.000D-10 1.000D-09 after    14 iterations.
 FoFJK:  IHMeth= 1 ICntrl=     0 DoSepK=T KAlg= 1 I1Cent= 0 FoldK=F
 End of Minotr Frequency-dependent properties file   721 does not exist.
 End of Minotr Frequency-dependent properties file   722 does not exist.

 **********************************************************************

            Population analysis using the SCF density.

 **********************************************************************

 Alpha  occ. eigenvalues --  -19.20592 -14.43921 -10.37654  -1.13251  -1.00140
 Alpha  occ. eigenvalues --   -0.70900  -0.63283  -0.56221  -0.49948  -0.49027
 Alpha  occ. eigenvalues --   -0.35108  -0.34314
 Alpha virt. eigenvalues --    0.01671   0.03328   0.04398   0.04944   0.07805
 Alpha virt. eigenvalues --    0.08200   0.09546   0.12744   0.14289   0.14951
 Alpha virt. eigenvalues --    0.15949   0.18128   0.20969   0.21113   0.21475
 Alpha virt. eigenvalues --    0.26157   0.27057   0.27879   0.29166   0.35807
 Alpha virt. eigenvalues --    0.35958   0.36487   0.39837   0.44236   0.45521
 Alpha virt. eigenvalues --    0.48141   0.49435   0.51473   0.54114   0.54574
 Alpha virt. eigenvalues --    0.55022   0.57584   0.58384   0.60579   0.66859
 Alpha virt. eigenvalues --    0.68992   0.72108   0.75272   0.80440   0.83460
 Alpha virt. eigenvalues --    0.86149   0.87232   0.91455   1.05604   1.07186
 Alpha virt. eigenvalues --    1.08786   1.12408   1.18207   1.22635   1.26539
 Alpha virt. eigenvalues --    1.30111   1.34930   1.42877   1.49236   1.49240
 Alpha virt. eigenvalues --    1.66239   1.69918   1.71600   1.76712   1.80636
 Alpha virt. eigenvalues --    1.83629   1.87524   2.00351   2.03408   2.05066
 Alpha virt. eigenvalues --    2.10199   2.14980   2.22047   2.22796   2.28727
 Alpha virt. eigenvalues --    2.46313   2.51524   2.55134   2.66073   2.69134
 Alpha virt. eigenvalues --    2.86876   3.02817   3.17882   3.31104   3.40263
 Alpha virt. eigenvalues --    3.45509   3.46312   3.71927   3.77736
          Condensed to atoms (all electrons):
              1          2          3          4          5          6
     1  C    4.808898   0.335984   0.326708  -0.192686  -0.131091   0.034611
     2  N    0.335984   5.856118  -0.065821   0.390049   0.349243  -0.027194
     3  O    0.326708  -0.065821   8.386466   0.001783  -0.002294  -0.092568
     4  H   -0.192686   0.390049   0.001783   1.048857  -0.216210   0.057068
     5  H   -0.131091   0.349243  -0.002294  -0.216210   1.054479  -0.010156
     6  H    0.034611  -0.027194  -0.092568   0.057068  -0.010156   1.330329
 Mulliken atomic charges:
              1
     1  C    0.817577
     2  N    0.161620
     3  O   -0.554274
     4  H   -0.088860
     5  H   -0.043972
     6  H   -0.292090
 Sum of Mulliken atomic charges =   0.00000
 Mulliken charges with hydrogens summed into heavy atoms:
              1
     1  C    0.525486
     2  N    0.028788
     3  O   -0.554274
 Sum of Mulliken charges with hydrogens summed into heavy atoms =   0.00000
 Electronic spatial extent (au):  <R**2>=            146.9405
 Charge=              0.0000 electrons
 Dipole moment (field-independent basis, Debye):
    X=              5.1238    Y=              1.2632    Z=              0.0005  Tot=              5.2772
 Quadrupole moment (field-independent basis, Debye-Ang):
   XX=            -18.5724   YY=            -15.2274   ZZ=            -19.2154
   XY=             -1.5257   XZ=              0.0002   YZ=             -0.0001
 Traceless Quadrupole moment (field-independent basis, Debye-Ang):
   XX=             -0.9007   YY=              2.4444   ZZ=             -1.5436
   XY=             -1.5257   XZ=              0.0002   YZ=             -0.0001
 Octapole moment (field-independent basis, Debye-Ang**2):
  XXX=             17.6895  YYY=             -0.6427  ZZZ=              0.0000  XYY=              3.9508
  XXY=              1.2891  XXZ=              0.0016  XZZ=             -0.7030  YZZ=              0.0247
  YYZ=              0.0003  XYZ=              0.0001
 Hexadecapole moment (field-independent basis, Debye-Ang**3):
 XXXX=           -115.0901 YYYY=            -33.8700 ZZZZ=            -19.6085 XXXY=              1.9779
 XXXZ=             -0.0015 YYYX=             -4.5769 YYYZ=             -0.0004 ZZZX=             -0.0036
 ZZZY=              0.0000 XXYY=            -24.0874 XXZZ=            -26.3725 YYZZ=            -10.2570
 XXYZ=              0.0002 YYXZ=             -0.0008 ZZXY=             -0.0017
 N-N= 7.116952588400D+01 E-N=-5.404459692202D+02  KE= 1.687833827230D+02
 D1PCM: PCM CHGder 1st derivatives, ID1Alg=3 FixD1E=F DoIter=F DoCFld=F I1PDM=6.
 Calling FoFJK, ICntrl=      5127 FMM=F ISym2X=0 I1Cent= 0 IOpClX= 0 NMat=1 NMatS=1 NMatT=0.
 FoFJK:  IHMeth= 1 ICntrl=  5127 DoSepK=T KAlg= 1 I1Cent= 0 FoldK=F
 -------------------------------------------------------------------
 Center     Atomic                   Forces (Hartrees/Bohr)
 Number     Number              X              Y              Z
 -------------------------------------------------------------------
      1        6          -0.023165811    0.040123156    0.000002240
      2        7          -0.009430924   -0.019650464    0.000004810
      3        8           0.009529172   -0.009672498   -0.000001852
      4        1           0.002424705   -0.018191976   -0.000002332
      5        1           0.021679254    0.016153366   -0.000001058
      6        1          -0.001036396   -0.008761584   -0.000001808
 -------------------------------------------------------------------
 Cartesian Forces:  Max     0.040123156 RMS     0.014816575

 GradGradGradGradGradGradGradGradGradGradGradGradGradGradGradGradGradGrad
 Berny optimization.
 Internal  Forces:  Max     0.027018430 RMS     0.012430935
 Search for a local minimum.
 Step number   1 out of a maximum of   25
 All quantities printed in internal units (Hartrees-Bohrs-Radians)
 Mixed Optimization -- RFO/linear search
 Second derivative matrix not updated -- first step.
 The second derivative matrix:
                          R1        R2        R3        R4        R5
           R1           0.56693
           R2           0.00000   0.92361
           R3           0.00000   0.00000   0.33098
           R4           0.00000   0.00000   0.00000   0.45754
           R5           0.00000   0.00000   0.00000   0.00000   0.46145
           A1           0.00000   0.00000   0.00000   0.00000   0.00000
           A2           0.00000   0.00000   0.00000   0.00000   0.00000
           A3           0.00000   0.00000   0.00000   0.00000   0.00000
           A4           0.00000   0.00000   0.00000   0.00000   0.00000
           A5           0.00000   0.00000   0.00000   0.00000   0.00000
           A6           0.00000   0.00000   0.00000   0.00000   0.00000
           D1           0.00000   0.00000   0.00000   0.00000   0.00000
           D2           0.00000   0.00000   0.00000   0.00000   0.00000
           D3           0.00000   0.00000   0.00000   0.00000   0.00000
           D4           0.00000   0.00000   0.00000   0.00000   0.00000
                          A1        A2        A3        A4        A5
           A1           0.25000
           A2           0.00000   0.16000
           A3           0.00000   0.00000   0.16000
           A4           0.00000   0.00000   0.00000   0.16000
           A5           0.00000   0.00000   0.00000   0.00000   0.16000
           A6           0.00000   0.00000   0.00000   0.00000   0.00000
           D1           0.00000   0.00000   0.00000   0.00000   0.00000
           D2           0.00000   0.00000   0.00000   0.00000   0.00000
           D3           0.00000   0.00000   0.00000   0.00000   0.00000
           D4           0.00000   0.00000   0.00000   0.00000   0.00000
                          A6        D1        D2        D3        D4
           A6           0.16000
           D1           0.00000   0.02455
           D2           0.00000   0.00000   0.02455
           D3           0.00000   0.00000   0.00000   0.02455
           D4           0.00000   0.00000   0.00000   0.00000   0.02455
     Eigenvalues ---    0.02455   0.02455   0.02455   0.16000   0.16000
     Eigenvalues ---    0.16000   0.22000   0.33098   0.45754   0.46145
     Eigenvalues ---    0.56693   0.923611000.000001000.000001000.00000
 RFO step:  Lambda=-6.35003889D-03 EMin= 2.45504600D-02
 Linear search not attempted -- first point.
 Iteration  1 RMS(Cart)=  0.04302701 RMS(Int)=  0.00129833
 Iteration  2 RMS(Cart)=  0.00134549 RMS(Int)=  0.00000039
 Iteration  3 RMS(Cart)=  0.00000050 RMS(Int)=  0.00000000
 Variable       Old X    -DE/DX   Delta X   Delta X   Delta X     New X
                                 (Linear)    (Quad)   (Total)
    R1        2.53658   0.02228   0.00000   0.03886   0.03886   2.57543
    R2        2.31863  -0.00317   0.00000  -0.00341  -0.00341   2.31523
    R3        2.08880  -0.00877   0.00000  -0.02600  -0.02600   2.06280
    R4        1.91109   0.01835   0.00000   0.03956   0.03956   1.95065
    R5        1.90668   0.02702   0.00000   0.05776   0.05776   1.96444
    A1        2.17634  -0.02102   0.00000  -0.09289  -0.09289   2.08345
    A2        1.97993   0.01146   0.00000   0.05215   0.05215   2.03208
    A3        2.12692   0.00956   0.00000   0.04074   0.04074   2.16765
    A4        2.09837   0.00114   0.00000   0.00688   0.00688   2.10525
    A5        2.10930  -0.00135   0.00000  -0.00811  -0.00811   2.10119
    A6        2.07552   0.00020   0.00000   0.00123   0.00123   2.07675
    D1       -0.00004   0.00000   0.00000   0.00001   0.00001  -0.00002
    D2       -3.14155   0.00000   0.00000  -0.00016  -0.00016   3.14148
    D3        3.14156   0.00000   0.00000   0.00014   0.00014  -3.14148
    D4        0.00005   0.00000   0.00000  -0.00003  -0.00003   0.00002
         Item               Value     Threshold  Converged?
 Maximum Force            0.027018     0.000450     NO 
 RMS     Force            0.012431     0.000300     NO 
 Maximum Displacement     0.072628     0.001800     NO 
 RMS     Displacement     0.043269     0.001200     NO 
 Predicted change in Energy=-3.239218D-03
 GradGradGradGradGradGradGradGradGradGradGradGradGradGradGradGradGradGrad

                          Input orientation:                          
 ---------------------------------------------------------------------
 Center     Atomic      Atomic             Coordinates (Angstroms)
 Number     Number       Type             X           Y           Z
 ---------------------------------------------------------------------
      1          6           0       -0.155659    0.427844    0.000036
      2          7           0        1.071320   -0.165379    0.000109
      3          8           0       -1.161408   -0.271799   -0.000101
      4          1           0        1.158033   -1.193972    0.000072
      5          1           0        1.935083    0.413026    0.000125
      6          1           0       -0.167600    1.519367   -0.000024
 ---------------------------------------------------------------------
                    Distance matrix (angstroms):
                    1          2          3          4          5
     1  C    0.000000
     2  N    1.362861   0.000000
     3  O    1.225166   2.235263   0.000000
     4  H    2.087121   1.032241   2.496039   0.000000
     5  H    2.090794   1.039538   3.171315   1.785006   0.000000
     6  H    1.091588   2.091242   2.048397   3.019853   2.375977
                    6
     6  H    0.000000
 Symmetry turned off by external request.
 Stoichiometry    CH3NO
 Framework group  C1[X(CH3NO)]
 Deg. of freedom    12
 Full point group                 C1      NOp   1
 Rotational constants (GHZ):     65.9700327     11.7598423      9.9806822
 Standard basis: Aug-CC-pVDZ (5D, 7F)
 Integral buffers will be    131072 words long.
 Raffenetti 2 integral format.
 Two-electron integral symmetry is turned off.
    96 basis functions,   162 primitive gaussians,   102 cartesian basis functions
    12 alpha electrons       12 beta electrons
       nuclear repulsion energy        70.9614842138 Hartrees.
 NAtoms=    6 NActive=    6 NUniq=    6 SFac= 7.50D-01 NAtFMM=   80 NAOKFM=F Big=F
 Standard density basis: Auto (5D, 7F)
   327 Density fitting functions
 ------------------------------------------------------------------------------
 Polarizable Continuum Model (PCM)
 =================================
 Model                : PCM.
 Atomic radii         : UFF (Universal Force Field).
 Polarization charges : Total charges.
 Charge compensation  : None.
 Solution method      : Matrix inversion.
 Cavity type          : Scaled VdW (van der Waals Surface) (Alpha=1.100).
 Cavity algorithm     : GePol (No added spheres)
                        Default sphere list used, NSphG=    6.
                        Lebedev-Laikov grids with approx.  5.0 points / Ang**2.
                        Smoothing algorithm: Karplus/York (Gamma=1.0000).
                        Polarization charges: spherical gaussians, with
                                              point-specific exponents (IZeta= 3).
                        Self-potential: point-specific (ISelfS= 7).
                        Self-field    : sphere-specific E.n sum rule (ISelfD= 2).
 1st derivatives      : Analytical E(r).r(x)/FMM algorithm (CHGder, D1EAlg=3).
                        Cavity 1st derivative terms included.
 Solvent              : Water, Eps=  78.355300 Eps(inf)=   1.777849
 ------------------------------------------------------------------------------
 Spheres list:
 ISph  on   Nord    Re0     Alpha      Xe            Ye            Ze
    1   C      1    1.926   1.100     -0.155659      0.427844      0.000036
    2   N      2    1.830   1.100      1.071320     -0.165379      0.000109
    3   O      3    1.750   1.100     -1.161408     -0.271799     -0.000101
    4   H      4    1.443   1.100      1.158033     -1.193972      0.000072
    5   H      5    1.443   1.100      1.935083      0.413026      0.000125
    6   H      6    1.443   1.100     -0.167600      1.519367     -0.000024
 ------------------------------------------------------------------------------
 One-electron integrals computed using PRISM.
 NBasis=    96 RedAO= T  NBF=    96
 NBsUse=    96 1.00D-06 NBFU=    96
 Initial guess read from the read-write file.
 B after Tr=     0.000000    0.000000    0.000000
         Rot=    1.000000    0.000000    0.000000    0.000000 Ang=   0.00 deg.
 Harris functional with IExCor=20419 diagonalized for initial guess.
 ExpMin= 2.97D-02 ExpMax= 1.17D+04 ExpMxC= 4.01D+02 IAcc=3 IRadAn=         5 AccDes= 0.00D+00
 HarFok:  IExCor=20419 AccDes= 0.00D+00 IRadAn=         5 IDoV= 1
 ScaDFX=  1.000000  1.000000  1.000000  1.000000
 FoFCou: FMM=F IPFlag=           0 FMFlag=      100000 FMFlg1=           0
         NFxFlg=           0 DoJE=T BraDBF=F KetDBF=T FulRan=T
         Omega=  0.000000  0.000000  1.000000  0.000000  0.000000 ICntrl=     500 IOpCl=  0
         NMat0=    1 NMatS0=    1 NMatT0=    0 NMatD0=    1 NMtDS0=    0 NMtDT0=    0
         I1Cent=           4 NGrid=           0.
 Symmetry not used in FoFCou.
 Requested convergence on RMS density matrix=1.00D-08 within 128 cycles.
 Requested convergence on MAX density matrix=1.00D-06.
 Requested convergence on             energy=1.00D-06.
 No special actions if energy rises.
 FoFJK:  IHMeth= 1 ICntrl=     0 DoSepK=T KAlg= 1 I1Cent= 0 FoldK=F
 FoFJK:  IHMeth= 1 ICntrl=     0 DoSepK=T KAlg= 1 I1Cent= 0 FoldK=F
 FoFJK:  IHMeth= 1 ICntrl=     0 DoSepK=T KAlg= 1 I1Cent= 0 FoldK=F
 FoFJK:  IHMeth= 1 ICntrl=     0 DoSepK=T KAlg= 1 I1Cent= 0 FoldK=F
 FoFJK:  IHMeth= 1 ICntrl=     0 DoSepK=T KAlg= 1 I1Cent= 0 FoldK=F
 FoFJK:  IHMeth= 1 ICntrl=     0 DoSepK=T KAlg= 1 I1Cent= 0 FoldK=F
 FoFJK:  IHMeth= 1 ICntrl=     0 DoSepK=T KAlg= 1 I1Cent= 0 FoldK=F
 FoFJK:  IHMeth= 1 ICntrl=     0 DoSepK=T KAlg= 1 I1Cent= 0 FoldK=F
 FoFJK:  IHMeth= 1 ICntrl=     0 DoSepK=T KAlg= 1 I1Cent= 0 FoldK=F
 FoFJK:  IHMeth= 1 ICntrl=     0 DoSepK=T KAlg= 1 I1Cent= 0 FoldK=F
 FoFJK:  IHMeth= 1 ICntrl=     0 DoSepK=T KAlg= 1 I1Cent= 0 FoldK=F
 Error on total polarization charges =  0.01063
 SCF Done:  E(RCAM-B3LYP) =  -169.861051900     A.U. after   11 cycles
             Convg  =    0.3583D-08             -V/T =  2.0070
 ExpMin= 2.97D-02 ExpMax= 1.17D+04 ExpMxC= 4.01D+02 IAcc=3 IRadAn=         5 AccDes= 0.00D+00
 HarFok:  IExCor=  205 AccDes= 0.00D+00 IRadAn=         5 IDoV=-2
 ScaDFX=  1.000000  1.000000  1.000000  1.000000
 Range of M.O.s used for correlation:     4    96
 NBasis=    96 NAE=    12 NBE=    12 NFC=     3 NFV=     0
 NROrb=     93 NOA=     9 NOB=     9 NVA=    84 NVB=    84

 **** Warning!!: The largest alpha MO coefficient is  0.18697861D+02

 NEqPCM:  Using equilibrium solvation (IEInf=0, Eps=  78.3553, EpsInf=   1.7778)
 Generating guess from densities on rwf.
 Convergence on wavefunction:    0.000001000000000
 Iteration     1 Dimension    40 NMult    40
 CISAX will form    40 AO SS matrices at one time.
 FoFJK:  IHMeth= 1 ICntrl=     0 DoSepK=T KAlg= 1 I1Cent= 0 FoldK=F
 FoFJK:  IHMeth= 1 ICntrl=     0 DoSepK=T KAlg= 1 I1Cent= 0 FoldK=F
 New state      2 was old state      3
 New state      3 was old state      2
 New state      5 was old state      6
 New state      6 was old state      5
 New state      7 was old state      8
 New state      8 was old state      7
 New state     11 was old state     12
 New state     12 was old state     11
 New state     13 was old state     14
 New state     14 was old state     13
 New state     15 was old state     16
 New state     16 was old state     15
 New state     19 was old state     20
 New state     20 was old state     19
 Iteration     2 Dimension    80 NMult    80
 FoFJK:  IHMeth= 1 ICntrl=     0 DoSepK=T KAlg= 1 I1Cent= 0 FoldK=F
 FoFJK:  IHMeth= 1 ICntrl=     0 DoSepK=T KAlg= 1 I1Cent= 0 FoldK=F
 New state     15 was old state     16
 New state     16 was old state     15
 Iteration     3 Dimension   120 NMult   120
 FoFJK:  IHMeth= 1 ICntrl=     0 DoSepK=T KAlg= 1 I1Cent= 0 FoldK=F
 FoFJK:  IHMeth= 1 ICntrl=     0 DoSepK=T KAlg= 1 I1Cent= 0 FoldK=F
 Iteration     4 Dimension   160 NMult   160
 FoFJK:  IHMeth= 1 ICntrl=     0 DoSepK=T KAlg= 1 I1Cent= 0 FoldK=F
 FoFJK:  IHMeth= 1 ICntrl=     0 DoSepK=T KAlg= 1 I1Cent= 0 FoldK=F
 Iteration     5 Dimension   200 NMult   200
 FoFJK:  IHMeth= 1 ICntrl=     0 DoSepK=T KAlg= 1 I1Cent= 0 FoldK=F
 FoFJK:  IHMeth= 1 ICntrl=     0 DoSepK=T KAlg= 1 I1Cent= 0 FoldK=F
 Iteration     6 Dimension   240 NMult   240
 FoFJK:  IHMeth= 1 ICntrl=     0 DoSepK=T KAlg= 1 I1Cent= 0 FoldK=F
 FoFJK:  IHMeth= 1 ICntrl=     0 DoSepK=T KAlg= 1 I1Cent= 0 FoldK=F
 Iteration     7 Dimension   272 NMult   272
 FoFJK:  IHMeth= 1 ICntrl=     0 DoSepK=T KAlg= 1 I1Cent= 0 FoldK=F
 FoFJK:  IHMeth= 1 ICntrl=     0 DoSepK=T KAlg= 1 I1Cent= 0 FoldK=F
 Iteration     8 Dimension   286 NMult   286
 FoFJK:  IHMeth= 1 ICntrl=     0 DoSepK=T KAlg= 1 I1Cent= 0 FoldK=F
 FoFJK:  IHMeth= 1 ICntrl=     0 DoSepK=T KAlg= 1 I1Cent= 0 FoldK=F
 Iteration     9 Dimension   294 NMult   294
 FoFJK:  IHMeth= 1 ICntrl=     0 DoSepK=T KAlg= 1 I1Cent= 0 FoldK=F
 FoFJK:  IHMeth= 1 ICntrl=     0 DoSepK=T KAlg= 1 I1Cent= 0 FoldK=F
 Iteration    10 Dimension   296 NMult   296
 FoFJK:  IHMeth= 1 ICntrl=     0 DoSepK=T KAlg= 1 I1Cent= 0 FoldK=F
 FoFJK:  IHMeth= 1 ICntrl=     0 DoSepK=T KAlg= 1 I1Cent= 0 FoldK=F
 Iteration    11 Dimension   298 NMult   298
 FoFJK:  IHMeth= 1 ICntrl=     0 DoSepK=T KAlg= 1 I1Cent= 0 FoldK=F
 FoFJK:  IHMeth= 1 ICntrl=     0 DoSepK=T KAlg= 1 I1Cent= 0 FoldK=F
 Iteration    12 Dimension   300 NMult   300
 FoFJK:  IHMeth= 1 ICntrl=     0 DoSepK=T KAlg= 1 I1Cent= 0 FoldK=F
 FoFJK:  IHMeth= 1 ICntrl=     0 DoSepK=T KAlg= 1 I1Cent= 0 FoldK=F
 ***********************************************************************
 Excited states from <AA,BB:AA,BB> singles matrix:
 ***********************************************************************
 
 Ground to excited state transition electric dipole moments (Au):
       state          X           Y           Z        Dip. S.      Osc.
         1         0.0000      0.0000      0.0718      0.0052      0.0007
         2         0.8168      0.0718      0.0005      0.6723      0.1141
         3        -0.0010     -0.0001      0.3419      0.1169      0.0197
         4         1.1393     -0.1407      0.0001      1.3178      0.2293
         5         0.0004     -0.0011      0.0374      0.0014      0.0003
         6        -0.2395      0.7575      0.0000      0.6312      0.1185
         7        -0.0002     -0.0001     -0.3888      0.1511      0.0292
         8         0.6127      0.3383     -0.0001      0.4898      0.0959
         9         0.0001      0.0000      0.1565      0.0245      0.0051
        10        -0.1977     -0.0649      0.0000      0.0433      0.0091
        11        -0.0002      0.0001      0.1856      0.0344      0.0075
        12         0.1907     -0.1161      0.0001      0.0499      0.0110
        13         0.0001      0.0000     -0.2353      0.0554      0.0125
        14        -0.1428     -0.0258     -0.0001      0.0211      0.0048
        15         0.1344      0.0381      0.0003      0.0195      0.0048
        16         0.0001      0.0001     -0.1349      0.0182      0.0045
        17         0.0000      0.0001     -0.1336      0.0179      0.0044
        18         0.0001      0.0001     -0.2296      0.0527      0.0132
        19         0.0000     -0.0001     -0.0447      0.0020      0.0005
        20        -0.1401     -0.3723      0.0001      0.1582      0.0406
 Ground to excited state transition velocity dipole moments (Au):
       state          X           Y           Z        Dip. S.      Osc.
         1         0.0000      0.0000     -0.0183      0.0003      0.0011
         2        -0.2034     -0.0187     -0.0001      0.0417      0.1093
         3         0.0003      0.0000     -0.0838      0.0070      0.0185
         4        -0.2944      0.0376      0.0000      0.0881      0.2250
         5        -0.0001      0.0003     -0.0114      0.0001      0.0003
         6         0.0681     -0.2102      0.0000      0.0488      0.1156
         7         0.0001      0.0000      0.1096      0.0120      0.0276
         8        -0.1787     -0.0979      0.0000      0.0415      0.0943
         9         0.0000      0.0000     -0.0498      0.0025      0.0053
        10         0.0527      0.0182      0.0000      0.0031      0.0066
        11         0.0001      0.0000     -0.0587      0.0034      0.0070
        12        -0.0597      0.0366      0.0000      0.0049      0.0098
        13         0.0000      0.0000      0.0802      0.0064      0.0127
        14         0.0395      0.0066      0.0000      0.0016      0.0031
        15        -0.0493     -0.0066     -0.0001      0.0025      0.0045
        16        -0.0001      0.0000      0.0498      0.0025      0.0045
        17         0.0000      0.0000      0.0566      0.0032      0.0058
        18         0.0000      0.0000      0.0737      0.0054      0.0096
        19         0.0000      0.0000      0.0139      0.0002      0.0003
        20         0.0522      0.1428      0.0000      0.0231      0.0400
 Ground to excited state transition magnetic dipole moments (Au):
       state          X           Y           Z
         1        -0.9228     -0.4607     -0.0001
         2        -0.0001      0.0006      0.6364
         3         0.0116      0.5459     -0.0008
         4         0.0000      0.0000     -0.0634
         5         0.0431     -0.0330      0.0002
         6         0.0001      0.0000     -0.1645
         7        -0.0375      0.3539     -0.0002
         8        -0.0001      0.0001      0.4392
         9        -0.0635      0.1297      0.0000
        10        -0.0001      0.0000      0.0715
        11         0.1217     -0.2584      0.0000
        12         0.0001     -0.0001     -0.0252
        13        -0.0763     -0.5594     -0.0001
        14         0.0000     -0.0003      0.1848
        15         0.0014     -0.0008     -0.3336
        16        -0.9660      0.7661     -0.0006
        17         0.2517     -0.5508     -0.0002
        18         0.3393     -0.7168     -0.0001
        19         0.0461     -0.1675      0.0000
        20         0.0000     -0.0001      0.1023
 <0|del|b> * <b|rxdel|0> + <0|del|b> * <b|delr+rdel|0>
 Rotatory Strengths (R) in cgs (10**-40 erg-esu-cm/Gauss)
       state          XX          YY          ZZ    R(velocity)
         1        -0.0023     -0.0097     -0.0165     -0.0095
 Total R(velocity) tensor for State=          1
                 1             2             3 
      1  -0.230822D-02  0.627788D-02  0.186431D-05
      2   0.146582D-01 -0.973170D-02  0.179266D-05
      3  -0.244673D+02 -0.136945D+02 -0.165350D-01
         2        -0.2071     -0.0346      0.0473     -0.0648
 Total R(velocity) tensor for State=          2
                 1             2             3 
      1  -0.207092D+00  0.327749D+00  0.271808D+03
      2  -0.469201D-01 -0.345804D-01  0.769753D+02
      3   0.333918D+00 -0.362768D+01  0.473406D-01
         3         0.1738      0.0617     -0.0015      0.0780
 Total R(velocity) tensor for State=          3
                 1             2             3 
      1   0.173806D+00 -0.327102D+00  0.430653D-03
      2   0.357732D-01  0.617088D-01  0.125855D-03
      3  -0.151598D+01  0.107307D+02 -0.148410D-02
         4        -0.0010     -0.0030     -0.0044     -0.0028
 Total R(velocity) tensor for State=          4
                 1             2             3 
      1  -0.104936D-02 -0.176409D-01 -0.147513D+02
      2   0.964606D-02 -0.297339D-02 -0.123115D+03
      3   0.450148D+01  0.352843D+02 -0.437917D-02
         5        -0.0352     -0.0231      0.0146     -0.0146
 Total R(velocity) tensor for State=          5
                 1             2             3 
      1  -0.352297D-01 -0.160447D-01 -0.519136D-04
      2  -0.609793D-01 -0.231153D-01  0.306697D-04
      3  -0.976573D+00  0.173636D+00  0.145671D-01
         6         0.0367      0.0180     -0.0140      0.0135
 Total R(velocity) tensor for State=          6
                 1             2             3 
      1   0.366510D-01  0.136584D-01 -0.371670D+02
      2   0.573062D-01  0.180002D-01  0.114595D+02
      3   0.158701D+02  0.513793D+01 -0.140370D-01
         7        -0.0009     -0.0209      0.0089     -0.0043
 Total R(velocity) tensor for State=          7
                 1             2             3 
      1  -0.886691D-03 -0.713218D-01  0.273626D-04
      2   0.121559D-01 -0.208560D-01  0.113037D-05
      3   0.523866D+01 -0.312500D+02  0.887475D-02
         8         0.0039      0.0248      0.0097      0.0128
 Total R(velocity) tensor for State=          8
                 1             2             3 
      1   0.387494D-02  0.622906D-01  0.176429D+03
      2  -0.120357D-01  0.248086D-01  0.723355D+01
      3  -0.744475D+01  0.135865D+02  0.973381D-02
         9        -0.0003      0.0006      0.0015      0.0006
 Total R(velocity) tensor for State=          9
                 1             2             3 
      1  -0.261959D-03  0.879403D-02 -0.184772D-05
      2   0.358384D-03  0.576259D-03  0.000000D+00
      3  -0.325170D+01 -0.572898D+00  0.148623D-02
        10         0.0011     -0.0023     -0.0037     -0.0017
 Total R(velocity) tensor for State=         10
                 1             2             3 
      1   0.106752D-02 -0.605066D-02 -0.114864D+02
      2   0.681070D-03 -0.234725D-02 -0.145022D+01
      3  -0.418820D+01  0.121387D+02 -0.368320D-02
        11         0.0062      0.0212      0.0019      0.0098
 Total R(velocity) tensor for State=         11
                 1             2             3 
      1   0.619683D-02  0.380929D-01 -0.602391D-05
      2   0.214101D-01  0.211732D-01  0.157027D-04
      3   0.240902D+01  0.201637D+01  0.188784D-02
        12         0.0014     -0.0189     -0.0025     -0.0067
 Total R(velocity) tensor for State=         12
                 1             2             3 
      1   0.141534D-02 -0.238363D-01 -0.228813D+02
      2  -0.266980D-01 -0.189223D-01  0.215173D+02
      3   0.626700D+00  0.102126D+01 -0.251338D-02
        13        -0.0135     -0.0114      0.0054     -0.0065
 Total R(velocity) tensor for State=         13
                 1             2             3 
      1  -0.134912D-01 -0.191025D-01 -0.417137D-05
      2   0.671654D-02 -0.113835D-01  0.233153D-05
      3   0.180144D+02  0.372576D+02  0.542661D-02
        14         0.0035      0.0113     -0.0065      0.0028
 Total R(velocity) tensor for State=         14
                 1             2             3 
      1   0.348018D-02  0.162059D-01 -0.595470D+01
      2  -0.513129D-02  0.112933D-01  0.314470D+01
      3   0.807151D+00 -0.486527D+01 -0.650790D-02
        15         0.0290     -0.0399     -0.0310     -0.0140
 Total R(velocity) tensor for State=         15
                 1             2             3 
      1   0.289571D-01 -0.201546D-01 -0.103022D+02
      2  -0.186898D-01 -0.399072D-01  0.944778D+01
      3  -0.651736D+00  0.483864D+01 -0.310058D-01
        16        -0.0364      0.0237      0.0161      0.0011
 Total R(velocity) tensor for State=         16
                 1             2             3 
      1  -0.364382D-01  0.265582D-01 -0.265179D-04
      2  -0.739774D-02  0.237353D-01  0.216475D-05
      3   0.289751D+02 -0.332598D+02  0.160905D-01
        17         0.0068     -0.0122      0.0023     -0.0010
 Total R(velocity) tensor for State=         17
                 1             2             3 
      1   0.682131D-02 -0.381298D-02  0.000000D+00
      2   0.919522D-02 -0.122001D-01 -0.294753D-05
      3  -0.192975D+02  0.114896D+02  0.226980D-02
        18         0.0196     -0.0143     -0.0053      0.0000
 Total R(velocity) tensor for State=         18
                 1             2             3 
      1   0.195581D-01 -0.424710D-01 -0.405534D-05
      2   0.326040D-02 -0.143461D-01 -0.320224D-05
      3  -0.274917D+02  0.281269D+02 -0.527640D-02
        19        -0.0083     -0.0016     -0.0051     -0.0050
 Total R(velocity) tensor for State=         19
                 1             2             3 
      1  -0.825403D-02 -0.122965D-02 -0.246860D-05
      2  -0.256126D-02 -0.164874D-02  0.369474D-05
      3   0.291996D+00  0.152738D+01 -0.513632D-02
        20        -0.0163     -0.0017     -0.0095     -0.0092
 Total R(velocity) tensor for State=         20
                 1             2             3 
      1  -0.163190D-01 -0.722010D-02 -0.736783D+02
      2  -0.807676D-02 -0.172954D-02 -0.261634D+02
      3   0.812971D+02 -0.297263D+02 -0.949719D-02
 1/2[<0|r|b>*<b|rxdel|0> + (<0|rxdel|b>*<b|r|0>)*]
 Rotatory Strengths (R) in cgs (10**-40 erg-esu-cm/Gauss)
       state          XX          YY          ZZ     R(length)     R(au)
         1        -0.0246     -0.0127      0.0071     -0.0101      0.0000
         2         0.0748     -0.0326     -0.2409     -0.0663     -0.0001
         3         0.0084      0.0361      0.1946      0.0797      0.0002
         4        -0.0095     -0.0030      0.0042     -0.0028      0.0000
         5        -0.0127     -0.0248     -0.0061     -0.0145      0.0000
         6         0.0119      0.0248      0.0037      0.0135      0.0000
         7        -0.0056      0.0362     -0.0442     -0.0045      0.0000
         8         0.0248     -0.0273      0.0419      0.0131      0.0000
         9         0.0036     -0.0037      0.0020      0.0006      0.0000
        10        -0.0071      0.0020     -0.0005     -0.0019      0.0000
        11         0.0171      0.0113      0.0023      0.0102      0.0000
        12        -0.0136     -0.0099      0.0023     -0.0071      0.0000
        13         0.0049      0.0007     -0.0224     -0.0056      0.0000
        14        -0.0045     -0.0050      0.0161      0.0022      0.0000
        15        -0.1336      0.0226      0.0798     -0.0104      0.0000
        16         0.0966     -0.0476     -0.0613     -0.0041      0.0000
        17        -0.0011      0.0199     -0.0160      0.0009      0.0000
        18        -0.0261      0.0362     -0.0104     -0.0001      0.0000
        19        -0.0009     -0.0151      0.0014     -0.0049      0.0000
        20        -0.0008     -0.0220     -0.0050     -0.0093      0.0000
  1/2[<0|del|b>*<b|r|0> + (<0|r|b>*<b|del|0>)*] (Au)
       state          X           Y           Z        Dip. S.   Osc.(frdel)
         1         0.0000      0.0000     -0.0013      0.0013      0.0009
         2        -0.1662     -0.0013      0.0000      0.1675      0.1117
         3         0.0000      0.0000     -0.0286      0.0286      0.0191
         4        -0.3354     -0.0053      0.0000      0.3407      0.2271
         5         0.0000      0.0000     -0.0004      0.0004      0.0003
         6        -0.0163     -0.1593      0.0000      0.1756      0.1170
         7         0.0000      0.0000     -0.0426      0.0426      0.0284
         8        -0.1095     -0.0331      0.0000      0.1426      0.0951
         9         0.0000      0.0000     -0.0078      0.0078      0.0052
        10        -0.0104     -0.0012      0.0000      0.0116      0.0077
        11         0.0000      0.0000     -0.0109      0.0109      0.0073
        12        -0.0114     -0.0043      0.0000      0.0156      0.0104
        13         0.0000      0.0000     -0.0189      0.0189      0.0126
        14        -0.0056     -0.0002      0.0000      0.0058      0.0039
        15        -0.0066     -0.0003      0.0000      0.0069      0.0046
        16         0.0000      0.0000     -0.0067      0.0067      0.0045
        17         0.0000      0.0000     -0.0076      0.0076      0.0050
        18         0.0000      0.0000     -0.0169      0.0169      0.0113
        19         0.0000      0.0000     -0.0006      0.0006      0.0004
        20        -0.0073     -0.0532      0.0000      0.0605      0.0403
 Ground to excited state transition densities written to RWF  633

 Excitation energies and oscillator strengths:
 
 Excited state symmetry could not be determined.
 Excited State   1:      Singlet-?Sym    5.6433 eV  219.70 nm  f=0.0007  <S**2>=0.000
      12 -> 16         0.67883
      12 -> 17        -0.17373
 
 Excited state symmetry could not be determined.
 Excited State   2:      Singlet-?Sym    6.9265 eV  179.00 nm  f=0.1141  <S**2>=0.000
      11 -> 16         0.52201
      11 -> 17        -0.19561
      12 -> 13         0.38735
      12 -> 15         0.11872
      12 -> 19        -0.10096
 
 Excited state symmetry could not be determined.
 Excited State   3:      Singlet-?Sym    6.8707 eV  180.45 nm  f=0.0197  <S**2>=0.000
      11 -> 13         0.66173
      11 -> 14         0.12346
      11 -> 19        -0.13204
      11 -> 20        -0.13560
 This state for optimization and/or second-order correction.
 Copying the excited state density for this state as the 1-particle RhoCI density.
 
 Excited state symmetry could not be determined.
 Excited State   4:      Singlet-?Sym    7.1027 eV  174.56 nm  f=0.2293  <S**2>=0.000
      11 -> 16         0.35267
      11 -> 17        -0.14084
      12 -> 13        -0.45546
      12 -> 14         0.18972
      12 -> 15        -0.26013
      12 -> 18        -0.15658
 
 Excited state symmetry could not be determined.
 Excited State   5:      Singlet-?Sym    7.6320 eV  162.45 nm  f=0.0003  <S**2>=0.000
      11 -> 13        -0.12075
      11 -> 14         0.62419
      11 -> 15         0.21894
      11 -> 21        -0.15501
 
 Excited state symmetry could not be determined.
 Excited State   6:      Singlet-?Sym    7.6639 eV  161.78 nm  f=0.1185  <S**2>=0.000
      11 -> 16        -0.10950
      12 -> 14         0.62877
      12 -> 15         0.17930
      12 -> 19        -0.14857
      12 -> 21        -0.11549
 
 Excited state symmetry could not be determined.
 Excited State   7:      Singlet-?Sym    7.8860 eV  157.22 nm  f=0.0292  <S**2>=0.000
      11 -> 14        -0.20770
      11 -> 15         0.63207
      11 -> 18         0.15256
      11 -> 23        -0.10663
 
 Excited state symmetry could not be determined.
 Excited State   8:      Singlet-?Sym    7.9875 eV  155.22 nm  f=0.0959  <S**2>=0.000
      12 -> 13        -0.33446
      12 -> 14        -0.11704
      12 -> 15         0.53227
      12 -> 18         0.24394
 
 Excited state symmetry could not be determined.
 Excited State   9:      Singlet-?Sym    8.4303 eV  147.07 nm  f=0.0051  <S**2>=0.000
      12 -> 16         0.16822
      12 -> 17         0.67635
 
 Excited state symmetry could not be determined.
 Excited State  10:      Singlet-?Sym    8.5514 eV  144.99 nm  f=0.0091  <S**2>=0.000
      11 -> 16         0.25524
      11 -> 17         0.65056
 
 Excited state symmetry could not be determined.
 Excited State  11:      Singlet-?Sym    8.9420 eV  138.65 nm  f=0.0075  <S**2>=0.000
      11 -> 14        -0.10116
      11 -> 15         0.11396
      11 -> 18        -0.65606
      11 -> 24         0.15597
 
 Excited state symmetry could not be determined.
 Excited State  12:      Singlet-?Sym    9.0365 eV  137.20 nm  f=0.0110  <S**2>=0.000
      12 -> 15         0.28965
      12 -> 18        -0.61230
      12 -> 19         0.13463
 
 Excited state symmetry could not be determined.
 Excited State  13:      Singlet-?Sym    9.2288 eV  134.34 nm  f=0.0125  <S**2>=0.000
      11 -> 13         0.11863
      11 -> 19         0.67111
 
 Excited state symmetry could not be determined.
 Excited State  14:      Singlet-?Sym    9.3249 eV  132.96 nm  f=0.0048  <S**2>=0.000
      12 -> 14         0.14874
      12 -> 18         0.12114
      12 -> 19         0.64803
      12 -> 21        -0.10348
 
 Excited state symmetry could not be determined.
 Excited State  15:      Singlet-?Sym   10.0151 eV  123.80 nm  f=0.0048  <S**2>=0.000
      12 -> 20         0.53214
      12 -> 23         0.38303
      12 -> 24         0.12378
      12 -> 26        -0.10354
 
 Excited state symmetry could not be determined.
 Excited State  16:      Singlet-?Sym   10.0252 eV  123.67 nm  f=0.0045  <S**2>=0.000
       9 -> 16         0.63118
       9 -> 17        -0.15868
      11 -> 20         0.11663
      11 -> 23         0.19353
 
 Excited state symmetry could not be determined.
 Excited State  17:      Singlet-?Sym   10.0995 eV  122.76 nm  f=0.0044  <S**2>=0.000
       9 -> 16        -0.14560
      11 -> 13         0.15196
      11 -> 20         0.60883
      11 -> 21         0.22971
 
 Excited state symmetry could not be determined.
 Excited State  18:      Singlet-?Sym   10.2416 eV  121.06 nm  f=0.0132  <S**2>=0.000
       9 -> 16        -0.19388
      11 -> 23         0.57967
      11 -> 24         0.24293
      11 -> 26         0.14811
 
 Excited state symmetry could not be determined.
 Excited State  19:      Singlet-?Sym   10.3726 eV  119.53 nm  f=0.0005  <S**2>=0.000
      11 -> 14        -0.18809
      11 -> 20         0.24424
      11 -> 21        -0.57244
      11 -> 23        -0.10633
      11 -> 24         0.16283
 
 Excited state symmetry could not be determined.
 Excited State  20:      Singlet-?Sym   10.4725 eV  118.39 nm  f=0.0406  <S**2>=0.000
      11 -> 22        -0.42022
      12 -> 20        -0.19539
      12 -> 21         0.35320
      12 -> 23         0.30477
      12 -> 24         0.15977
 SavETr:  write IOETrn=   770 NScale= 10 NData=  16 NLR=1 LETran=     370.
 FoFJK:  IHMeth= 1 ICntrl=     0 DoSepK=T KAlg= 1 I1Cent= 0 FoldK=F
 FoFJK:  IHMeth= 1 ICntrl=     0 DoSepK=T KAlg= 1 I1Cent= 0 FoldK=F
          IDoAtm=111111
 NEqPCM:  Using equilibrium solvation (IEInf=0, Eps=  78.3553, EpsInf=   1.7778)
          Differentiating once with respect to electric field.
                with respect to dipole field.
          Differentiating once with respect to nuclear coordinates.
          There are     1 degrees of freedom in the 1st order CPHF.  IDoFFX=0.
 FoFJK:  IHMeth= 1 ICntrl=     0 DoSepK=T KAlg= 1 I1Cent= 0 FoldK=F
 LinEq1:  Iter=  0 NonCon=     1 RMS=2.62D-02 Max=2.56D-01
 AX will form     1 AO Fock derivatives at one time.
 FoFJK:  IHMeth= 1 ICntrl=     0 DoSepK=T KAlg= 1 I1Cent= 0 FoldK=F
 LinEq1:  Iter=  1 NonCon=     1 RMS=7.31D-03 Max=1.06D-01
 FoFJK:  IHMeth= 1 ICntrl=     0 DoSepK=T KAlg= 1 I1Cent= 0 FoldK=F
 LinEq1:  Iter=  2 NonCon=     1 RMS=3.65D-03 Max=3.53D-02
 FoFJK:  IHMeth= 1 ICntrl=     0 DoSepK=T KAlg= 1 I1Cent= 0 FoldK=F
 LinEq1:  Iter=  3 NonCon=     1 RMS=1.38D-03 Max=3.01D-02
 FoFJK:  IHMeth= 1 ICntrl=     0 DoSepK=T KAlg= 1 I1Cent= 0 FoldK=F
 LinEq1:  Iter=  4 NonCon=     1 RMS=9.60D-04 Max=7.21D-03
 FoFJK:  IHMeth= 1 ICntrl=     0 DoSepK=T KAlg= 1 I1Cent= 0 FoldK=F
 LinEq1:  Iter=  5 NonCon=     1 RMS=1.48D-04 Max=1.76D-03
 FoFJK:  IHMeth= 1 ICntrl=     0 DoSepK=T KAlg= 1 I1Cent= 0 FoldK=F
 LinEq1:  Iter=  6 NonCon=     1 RMS=2.68D-05 Max=1.58D-04
 FoFJK:  IHMeth= 1 ICntrl=     0 DoSepK=T KAlg= 1 I1Cent= 0 FoldK=F
 LinEq1:  Iter=  7 NonCon=     1 RMS=5.77D-06 Max=3.78D-05
 FoFJK:  IHMeth= 1 ICntrl=     0 DoSepK=T KAlg= 1 I1Cent= 0 FoldK=F
 LinEq1:  Iter=  8 NonCon=     1 RMS=9.28D-07 Max=7.93D-06
 FoFJK:  IHMeth= 1 ICntrl=     0 DoSepK=T KAlg= 1 I1Cent= 0 FoldK=F
 LinEq1:  Iter=  9 NonCon=     1 RMS=1.30D-07 Max=1.08D-06
 FoFJK:  IHMeth= 1 ICntrl=     0 DoSepK=T KAlg= 1 I1Cent= 0 FoldK=F
 LinEq1:  Iter= 10 NonCon=     1 RMS=2.10D-08 Max=2.29D-07
 FoFJK:  IHMeth= 1 ICntrl=     0 DoSepK=T KAlg= 1 I1Cent= 0 FoldK=F
 LinEq1:  Iter= 11 NonCon=     1 RMS=3.44D-09 Max=2.88D-08
[...]
      11 -> 16         0.31981
      11 -> 17         0.44187
      12 -> 18        -0.33950
 
 Excited state symmetry could not be determined.
 Excited State  11:      Singlet-?Sym    8.6013 eV  144.15 nm  f=0.0545  <S**2>=0.000
      11 -> 14        -0.12836
      11 -> 15        -0.13266
      11 -> 16         0.10722
      11 -> 17         0.29527
      12 -> 14        -0.13788
      12 -> 17        -0.12539
      12 -> 18         0.52296
 
 Excited state symmetry could not be determined.
 Excited State  12:      Singlet-?Sym    8.6691 eV  143.02 nm  f=0.0285  <S**2>=0.000
      11 -> 14        -0.13125
      11 -> 16        -0.52589
      11 -> 17         0.32053
      11 -> 18         0.10415
      11 -> 19        -0.14613
      12 -> 19        -0.21938
 
 Excited state symmetry could not be determined.
 Excited State  13:      Singlet-?Sym    8.8979 eV  139.34 nm  f=0.0078  <S**2>=0.000
      11 -> 16        -0.19934
      12 -> 18        -0.14479
      12 -> 19         0.64117
 
 Excited state symmetry could not be determined.
 Excited State  14:      Singlet-?Sym    8.9797 eV  138.07 nm  f=0.1075  <S**2>=0.000
       9 -> 13        -0.63885
      10 -> 13        -0.19268
      11 -> 15        -0.11892
 
 Excited state symmetry could not be determined.
 Excited State  15:      Singlet-?Sym    9.2178 eV  134.51 nm  f=0.0484  <S**2>=0.000
      12 -> 14         0.12988
      12 -> 20         0.59879
      12 -> 21        -0.12601
      12 -> 22        -0.22347
      12 -> 24        -0.12847
 
 Excited state symmetry could not be determined.
 Excited State  16:      Singlet-?Sym    9.5373 eV  130.00 nm  f=0.0367  <S**2>=0.000
       8 -> 13        -0.10794
      12 -> 15         0.14904
      12 -> 21         0.55371
      12 -> 22        -0.32471
 
 Excited state symmetry could not be determined.
 Excited State  17:      Singlet-?Sym    9.6584 eV  128.37 nm  f=0.0068  <S**2>=0.000
       7 -> 13        -0.29999
       8 -> 13        -0.53710
      11 -> 18         0.13275
      12 -> 20         0.11995
      12 -> 22         0.24002
 
 Excited state symmetry could not be determined.
 Excited State  18:      Singlet-?Sym    9.7591 eV  127.04 nm  f=0.0209  <S**2>=0.000
       7 -> 13         0.15053
       8 -> 13         0.24099
      11 -> 18         0.11690
      12 -> 20         0.19316
      12 -> 21         0.33162
      12 -> 22         0.43788
 
 Excited state symmetry could not be determined.
 Excited State  19:      Singlet-?Sym    9.8330 eV  126.09 nm  f=0.0121  <S**2>=0.000
      11 -> 16         0.12655
      11 -> 18         0.61905
      11 -> 22        -0.13153
      12 -> 21        -0.10859
      12 -> 22        -0.14494
 
 Excited state symmetry could not be determined.
 Excited State  20:      Singlet-?Sym    9.9918 eV  124.09 nm  f=0.0092  <S**2>=0.000
      10 -> 14        -0.11426
      11 -> 16        -0.14693
      11 -> 19         0.57416
      12 -> 23        -0.24727
 SavETr:  write IOETrn=   770 NScale= 10 NData=  16 NLR=1 LETran=     370.
 FoFJK:  IHMeth= 1 ICntrl=     0 DoSepK=T KAlg= 1 I1Cent= 0 FoldK=F
 FoFJK:  IHMeth= 1 ICntrl=     0 DoSepK=T KAlg= 1 I1Cent= 0 FoldK=F
          IDoAtm=111111
 NEqPCM:  Using equilibrium solvation (IEInf=0, Eps=  78.3553, EpsInf=   1.7778)
          Differentiating once with respect to electric field.
                with respect to dipole field.
          Differentiating once with respect to nuclear coordinates.
          There are     1 degrees of freedom in the 1st order CPHF.  IDoFFX=0.
 FoFJK:  IHMeth= 1 ICntrl=     0 DoSepK=T KAlg= 1 I1Cent= 0 FoldK=F
 LinEq1:  Iter=  0 NonCon=     1 RMS=3.55D-02 Max=2.75D-01
 AX will form     1 AO Fock derivatives at one time.
 FoFJK:  IHMeth= 1 ICntrl=     0 DoSepK=T KAlg= 1 I1Cent= 0 FoldK=F
 LinEq1:  Iter=  1 NonCon=     1 RMS=1.24D-02 Max=2.28D-01
 FoFJK:  IHMeth= 1 ICntrl=     0 DoSepK=T KAlg= 1 I1Cent= 0 FoldK=F
 LinEq1:  Iter=  2 NonCon=     1 RMS=8.54D-03 Max=8.99D-02
 FoFJK:  IHMeth= 1 ICntrl=     0 DoSepK=T KAlg= 1 I1Cent= 0 FoldK=F
 LinEq1:  Iter=  3 NonCon=     1 RMS=4.63D-03 Max=5.94D-02
 FoFJK:  IHMeth= 1 ICntrl=     0 DoSepK=T KAlg= 1 I1Cent= 0 FoldK=F
 LinEq1:  Iter=  4 NonCon=     1 RMS=2.08D-03 Max=3.93D-02
 FoFJK:  IHMeth= 1 ICntrl=     0 DoSepK=T KAlg= 1 I1Cent= 0 FoldK=F
 LinEq1:  Iter=  5 NonCon=     1 RMS=5.74D-04 Max=8.86D-03
 FoFJK:  IHMeth= 1 ICntrl=     0 DoSepK=T KAlg= 1 I1Cent= 0 FoldK=F
 LinEq1:  Iter=  6 NonCon=     1 RMS=1.36D-04 Max=1.38D-03
 FoFJK:  IHMeth= 1 ICntrl=     0 DoSepK=T KAlg= 1 I1Cent= 0 FoldK=F
 LinEq1:  Iter=  7 NonCon=     1 RMS=2.65D-05 Max=2.03D-04
 FoFJK:  IHMeth= 1 ICntrl=     0 DoSepK=T KAlg= 1 I1Cent= 0 FoldK=F
 LinEq1:  Iter=  8 NonCon=     1 RMS=5.58D-06 Max=4.51D-05
 FoFJK:  IHMeth= 1 ICntrl=     0 DoSepK=T KAlg= 1 I1Cent= 0 FoldK=F
 LinEq1:  Iter=  9 NonCon=     1 RMS=1.04D-06 Max=1.10D-05
 FoFJK:  IHMeth= 1 ICntrl=     0 DoSepK=T KAlg= 1 I1Cent= 0 FoldK=F
 LinEq1:  Iter= 10 NonCon=     1 RMS=2.60D-07 Max=4.49D-06
 FoFJK:  IHMeth= 1 ICntrl=     0 DoSepK=T KAlg= 1 I1Cent= 0 FoldK=F
 LinEq1:  Iter= 11 NonCon=     1 RMS=7.31D-08 Max=1.38D-06
 FoFJK:  IHMeth= 1 ICntrl=     0 DoSepK=T KAlg= 1 I1Cent= 0 FoldK=F
 LinEq1:  Iter= 12 NonCon=     1 RMS=1.65D-08 Max=1.81D-07
 FoFJK:  IHMeth= 1 ICntrl=     0 DoSepK=T KAlg= 1 I1Cent= 0 FoldK=F
 LinEq1:  Iter= 13 NonCon=     1 RMS=2.90D-09 Max=2.88D-08
 FoFJK:  IHMeth= 1 ICntrl=     0 DoSepK=T KAlg= 1 I1Cent= 0 FoldK=F
 LinEq1:  Iter= 14 NonCon=     1 RMS=5.55D-10 Max=5.10D-09
 FoFJK:  IHMeth= 1 ICntrl=     0 DoSepK=T KAlg= 1 I1Cent= 0 FoldK=F
 LinEq1:  Iter= 15 NonCon=     0 RMS=7.59D-11 Max=6.06D-10
 Linear equations converged to 1.000D-10 1.000D-09 after    15 iterations.
 FoFJK:  IHMeth= 1 ICntrl=     0 DoSepK=T KAlg= 1 I1Cent= 0 FoldK=F
 End of Minotr Frequency-dependent properties file   721 does not exist.
 End of Minotr Frequency-dependent properties file   722 does not exist.
 D1PCM: PCM CHGder 1st derivatives, ID1Alg=3 FixD1E=F DoIter=F DoCFld=F I1PDM=6.
 Calling FoFJK, ICntrl=      5127 FMM=F ISym2X=0 I1Cent= 0 IOpClX= 0 NMat=1 NMatS=1 NMatT=0.
 FoFJK:  IHMeth= 1 ICntrl=  5127 DoSepK=T KAlg= 1 I1Cent= 0 FoldK=F
 -------------------------------------------------------------------
 Center     Atomic                   Forces (Hartrees/Bohr)
 Number     Number              X              Y              Z
 -------------------------------------------------------------------
      1        6           0.025648253    0.004031657    0.016503027
      2        7           0.001367905   -0.000457302    0.007795680
      3        8          -0.025358454   -0.004748567   -0.018370669
      4        1           0.000390078   -0.002260288   -0.001788715
      5        1          -0.001627246    0.002662260   -0.001683478
      6        1          -0.000420537    0.000772239   -0.002455845
 -------------------------------------------------------------------
 Cartesian Forces:  Max     0.025648253 RMS     0.010646351

 GradGradGradGradGradGradGradGradGradGradGradGradGradGradGradGradGradGrad
 Berny optimization.
 Using GEDIIS/GDIIS optimizer.
 Internal  Forces:  Max     0.031526339 RMS     0.008508965
 Search for a local minimum.
 Step number  25 out of a maximum of   25
 All quantities printed in internal units (Hartrees-Bohrs-Radians)
 Mixed Optimization -- RFO/linear search
 Update second derivatives using D2CorX and points   23   22   24   25
 DE= -3.08D-03 DEPred=-2.59D-03 R= 1.19D+00
 SS=  1.41D+00  RLast= 2.07D-01 DXNew= 8.8285D-01 6.2237D-01
 Trust test= 1.19D+00 RLast= 2.07D-01 DXMaxT set to 6.22D-01
 The second derivative matrix:
                          R1        R2        R3        R4        R5
           R1           0.21130
           R2           0.08547   1.62017
           R3          -0.00035  -0.11477   0.32882
           R4           0.01268   0.05970   0.00286   0.44521
           R5           0.01122   0.06333  -0.00520  -0.02020   0.43030
           A1           0.06527  -0.07301  -0.01629  -0.03458  -0.05726
           A2           0.02468   0.28039  -0.02150   0.00401   0.00557
           A3          -0.03970   0.08714  -0.00002   0.02714   0.02669
           A4           0.03180   0.05839  -0.03644   0.00101   0.00339
           A5          -0.02245   0.05188  -0.00433   0.00519   0.01224
           A6           0.00735   0.02966  -0.02572   0.00770   0.00834
           D1           0.02370   0.11236  -0.01907   0.00697   0.00459
           D2           0.01509  -0.20223   0.02295  -0.01621  -0.02071
           D3          -0.00298   0.16775  -0.01750   0.01891   0.02276
           D4          -0.01159  -0.14684   0.02451  -0.00426  -0.00254
                          A1        A2        A3        A4        A5
           A1           0.45391
           A2          -0.14932   0.24537
           A3          -0.15932   0.00545   0.11153
           A4          -0.02345   0.03653   0.01674   0.13717
           A5          -0.02676  -0.00096   0.03152  -0.02937   0.14111
           A6          -0.00037   0.01322   0.00914  -0.03650  -0.02309
           D1           0.00823   0.04799   0.00494   0.00713  -0.00371
           D2           0.11043  -0.07131  -0.03318  -0.03202  -0.00573
           D3          -0.05723   0.05987   0.01148   0.03229   0.00287
           D4           0.04497  -0.05943  -0.02664  -0.00686   0.00086
                          A6        D1        D2        D3        D4
           A6           0.11597
           D1          -0.00444   0.05377
           D2          -0.00628  -0.00902   0.10641
           D3           0.00231   0.01641  -0.06466   0.08165
           D4           0.00047  -0.02183   0.02622  -0.02397   0.04863
 Use linear search instead of GDIIS.
     Eigenvalues ---    0.02253   0.04928   0.07915   0.13331   0.14029
     Eigenvalues ---    0.16120   0.25158   0.32364   0.39931   0.45958
     Eigenvalues ---    0.60864   1.771641000.000001000.000001000.00000
 RFO step:  Lambda=-1.28765150D-03 EMin= 2.25298654D-02
 Quartic linear search produced a step of  0.31058.
 Iteration  1 RMS(Cart)=  0.03870410 RMS(Int)=  0.00149713
 Iteration  2 RMS(Cart)=  0.00116857 RMS(Int)=  0.00059749
 Iteration  3 RMS(Cart)=  0.00000125 RMS(Int)=  0.00059749
 Iteration  4 RMS(Cart)=  0.00000000 RMS(Int)=  0.00059749
 Variable       Old X    -DE/DX   Delta X   Delta X   Delta X     New X
                                 (Linear)    (Quad)   (Total)
    R1        2.71683  -0.00039  -0.00985  -0.01047  -0.02033   2.69651
    R2        2.36600   0.03153   0.01397   0.02258   0.03655   2.40255
    R3        2.11976  -0.00020   0.00646  -0.00260   0.00386   2.12362
    R4        1.92847   0.00027   0.00316  -0.00478  -0.00162   1.92686
    R5        1.94355   0.00093   0.00638  -0.00670  -0.00032   1.94323
    A1        2.14016   0.00461  -0.00616   0.00065  -0.00587   2.13429
    A2        1.80678  -0.00158  -0.00455  -0.01095  -0.01589   1.79089
    A3        2.13765  -0.00307   0.00714  -0.01645  -0.00981   2.12784
    A4        2.07883   0.00423   0.00958   0.01450   0.02288   2.10171
    A5        2.18345  -0.00525  -0.01439  -0.03322  -0.04880   2.13465
    A6        1.96184   0.00150  -0.00522   0.01084   0.00432   1.96616
    D1       -2.02233   0.00105  -0.04180   0.03167  -0.00976  -2.03209
    D2        1.51013  -0.00092  -0.00259   0.05377   0.05111   1.56124
    D3        1.74650   0.00274  -0.03971   0.07529   0.03565   1.78215
    D4       -1.00422   0.00077  -0.00050   0.09739   0.09652  -0.90770
         Item               Value     Threshold  Converged?
 Maximum Force            0.031526     0.000450     NO 
 RMS     Force            0.008509     0.000300     NO 
 Maximum Displacement     0.073915     0.001800     NO 
 RMS     Displacement     0.039205     0.001200     NO 
 Predicted change in Energy=-8.429358D-04
 Optimization stopped.
    -- Number of steps exceeded,  NStep=  25
    -- Flag reset to prevent archiving.
                           ----------------------------
                           ! Non-Optimized Parameters !
                           ! (Angstroms and Degrees)  !
 --------------------------                            --------------------------
 ! Name  Definition              Value          Derivative Info.                !
 --------------------------------------------------------------------------------
 ! R1    R(1,2)                  1.4269         -DE/DX =   -0.0004              !
 ! R2    R(1,3)                  1.2714         -DE/DX =    0.0315              !
 ! R3    R(1,6)                  1.1238         -DE/DX =   -0.0002              !
 ! R4    R(2,4)                  1.0196         -DE/DX =    0.0003              !
 ! R5    R(2,5)                  1.0283         -DE/DX =    0.0009              !
 ! A1    A(2,1,3)              122.2857         -DE/DX =    0.0046              !
 ! A2    A(2,1,6)              102.6104         -DE/DX =   -0.0016              !
 ! A3    A(3,1,6)              121.9164         -DE/DX =   -0.0031              !
 ! A4    A(1,2,4)              120.4193         -DE/DX =    0.0042              !
 ! A5    A(1,2,5)              122.3063         -DE/DX =   -0.0053              !
 ! A6    A(4,2,5)              112.6524         -DE/DX =    0.0015              !
 ! D1    D(3,1,2,4)           -116.4303         -DE/DX =    0.0011              !
 ! D2    D(3,1,2,5)             89.4526         -DE/DX =   -0.0009              !
 ! D3    D(6,1,2,4)            102.1094         -DE/DX =    0.0027              !
 ! D4    D(6,1,2,5)            -52.0076         -DE/DX =    0.0008              !
 --------------------------------------------------------------------------------
 GradGradGradGradGradGradGradGradGradGradGradGradGradGradGradGradGradGrad

                          Input orientation:                          
 ---------------------------------------------------------------------
 Center     Atomic      Atomic             Coordinates (Angstroms)
 Number     Number       Type             X           Y           Z
 ---------------------------------------------------------------------
      1          6           0       -0.275643    0.286710    0.134280
      2          7           0        1.053383   -0.231538   -0.044738
      3          8           0       -1.219290    0.006449   -0.639398
      4          1           0        1.444625   -0.850828    0.665783
      5          1           0        1.778966    0.193157   -0.637142
      6          1           0       -0.102271    1.325135    0.521432
 ---------------------------------------------------------------------
                    Distance matrix (angstroms):
                    1          2          3          4          5
     1  C    0.000000
     2  N    1.437686   0.000000
     3  O    1.252036   2.361208   0.000000
     4  H    2.129745   1.020505   3.087859   0.000000
     5  H    2.196648   1.028483   3.004065   1.702733   0.000000
     6  H    1.121727   2.019732   2.081872   2.673675   2.482482
                    6
     6  H    0.000000
 Symmetry turned off by external request.
 Stoichiometry    CH3NO
 Framework group  C1[X(CH3NO)]
 Deg. of freedom    12
 Full point group                 C1      NOp   1
 Rotational constants (GHZ):     68.4341457     10.1480248      9.3958600

 **********************************************************************

            Population analysis using the SCF density.

 **********************************************************************

 Alpha  occ. eigenvalues --  -19.25674 -14.40476 -10.40677  -1.14349  -0.96481
 Alpha  occ. eigenvalues --   -0.70066  -0.58707  -0.56751  -0.54577  -0.45657
 Alpha  occ. eigenvalues --   -0.36459  -0.32183
 Alpha virt. eigenvalues --   -0.03467   0.01682   0.03633   0.04388   0.06084
 Alpha virt. eigenvalues --    0.09209   0.10246   0.12720   0.14074   0.14170
 Alpha virt. eigenvalues --    0.17085   0.17379   0.19145   0.21160   0.24115
 Alpha virt. eigenvalues --    0.24328   0.25738   0.28206   0.30407   0.31308
 Alpha virt. eigenvalues --    0.32445   0.36683   0.38881   0.43017   0.44612
 Alpha virt. eigenvalues --    0.46983   0.48579   0.49240   0.51828   0.55527
 Alpha virt. eigenvalues --    0.56689   0.57986   0.58657   0.60779   0.66068
 Alpha virt. eigenvalues --    0.66920   0.71717   0.72881   0.77864   0.79020
 Alpha virt. eigenvalues --    0.82859   0.87925   0.93039   0.98543   1.04486
 Alpha virt. eigenvalues --    1.09808   1.10377   1.13244   1.18729   1.23847
 Alpha virt. eigenvalues --    1.27507   1.33070   1.43550   1.46560   1.54282
 Alpha virt. eigenvalues --    1.58060   1.61520   1.74996   1.77412   1.79229
 Alpha virt. eigenvalues --    1.88091   1.94864   1.96391   2.01842   2.05687
 Alpha virt. eigenvalues --    2.09152   2.11104   2.15543   2.18056   2.25499
 Alpha virt. eigenvalues --    2.30463   2.49100   2.53426   2.58474   2.69611
 Alpha virt. eigenvalues --    2.78094   2.93022   3.03718   3.22145   3.38239
 Alpha virt. eigenvalues --    3.39024   3.43878   3.53933   3.67200
          Condensed to atoms (all electrons):
              1          2          3          4          5          6
     1  C    4.631807   0.373339   0.282774  -0.148770  -0.084447   0.151322
     2  N    0.373339   6.112350  -0.029555   0.392886   0.358514  -0.081263
     3  O    0.282774  -0.029555   8.207481   0.010325   0.003475  -0.032614
     4  H   -0.148770   0.392886   0.010325   0.935173  -0.173055   0.017009
     5  H   -0.084447   0.358514   0.003475  -0.173055   0.902885   0.011457
     6  H    0.151322  -0.081263  -0.032614   0.017009   0.011457   1.107512
 Mulliken atomic charges:
              1
     1  C    0.793975
     2  N   -0.126270
     3  O   -0.441886
     4  H   -0.033568
     5  H   -0.018828
     6  H   -0.173422
 Sum of Mulliken atomic charges =   0.00000
 Mulliken charges with hydrogens summed into heavy atoms:
              1
     1  C    0.620553
     2  N   -0.178667
     3  O   -0.441886
 Sum of Mulliken charges with hydrogens summed into heavy atoms =   0.00000
 Electronic spatial extent (au):  <R**2>=            159.5050
 Charge=              0.0000 electrons
 Dipole moment (field-independent basis, Debye):
    X=              3.4420    Y=              1.1726    Z=              2.0947  Tot=              4.1964
 Quadrupole moment (field-independent basis, Debye-Ang):
   XX=            -18.5446   YY=            -17.6931   ZZ=            -18.4579
   XY=             -0.0759   XZ=             -2.1244   YZ=             -2.0043
 Traceless Quadrupole moment (field-independent basis, Debye-Ang):
   XX=             -0.3127   YY=              0.5387   ZZ=             -0.2260
   XY=             -0.0759   XZ=             -2.1244   YZ=             -2.0043
 Octapole moment (field-independent basis, Debye-Ang**2):
  XXX=             14.8668  YYY=              0.3444  ZZZ=              9.8622  XYY=              1.4905
  XXY=             -1.8757  XXZ=              3.6144  XZZ=              2.9465  YZZ=             -0.2941
  YYZ=              4.9317  XYZ=             -2.3381
 Hexadecapole moment (field-independent basis, Debye-Ang**3):
 XXXX=           -121.3308 YYYY=            -33.0000 ZZZZ=            -37.9357 XXXY=              7.2713
 XXXZ=            -18.8120 YYYX=              7.6809 YYYZ=             -3.0408 ZZZX=            -12.3781
 ZZZY=             -3.9616 XXYY=            -27.0170 XXZZ=            -26.6128 YYZZ=            -11.7526
 XXYZ=             -4.5580 YYXZ=             -2.4458 ZZXY=              2.1821
 N-N= 6.866465576157D+01 E-N=-5.350774742338D+02  KE= 1.684704622702D+02


 "TIGER, TIGER BURNING BRIGHT
 IN THE FOREST OF THE NIGHT.
 WHAT IMMORTAL HAND OR EYE
 CAN FRAME THY FEARFUL SYMMETRYE?"
                     - WILLIAM BLAKE
 Error termination request processed by link 9999.
 Error termination via Lnk1e in /home/diegoa/progs/g09/l9999.exe at Mon Oct 28 11:24:33 2019.
 Job cpu time:  0 days  5 hours 47 minutes 49.4 seconds.
 File lengths (MBytes):  RWF=     65 Int=      0 D2E=      0 Chk=      8 Scr=      1
