 Entering Gaussian System, Link 0=g09
 Input=td3-opt.com
 Output=td3-opt.log
 Initial command:
 /home/diegoa/progs/g09/l1.exe /home/diegoa/g09scratch/Gau-17017.inp -scrdir=/home/diegoa/g09scratch/
 Default is to use a total of   4 processors:
                                4 via shared-memory
                                1 via Linda
 Entering Link 1 = /home/diegoa/progs/g09/l1.exe PID=     17023.
  
 Copyright (c) 1988,1990,1992,1993,1995,1998,2003,2009, Gaussian, Inc.
                  All Rights Reserved.
  
 This is part of the Gaussian(R) 09 program.  It is based on
 the Gaussian(R) 03 system (copyright 2003, Gaussian, Inc.),
 the Gaussian(R) 98 system (copyright 1998, Gaussian, Inc.),
 the Gaussian(R) 94 system (copyright 1995, Gaussian, Inc.),
 the Gaussian 92(TM) system (copyright 1992, Gaussian, Inc.),
 the Gaussian 90(TM) system (copyright 1990, Gaussian, Inc.),
 the Gaussian 88(TM) system (copyright 1988, Gaussian, Inc.),
 the Gaussian 86(TM) system (copyright 1986, Carnegie Mellon
 University), and the Gaussian 82(TM) system (copyright 1983,
 Carnegie Mellon University). Gaussian is a federally registered
 trademark of Gaussian, Inc.
  
 This software contains proprietary and confidential information,
 including trade secrets, belonging to Gaussian, Inc.
  
 This software is provided under written license and may be
 used, copied, transmitted, or stored only in accord with that
 written license.
  
 The following legend is applicable only to US Government
 contracts under FAR:
  
                    RESTRICTED RIGHTS LEGEND
  
 Use, reproduction and disclosure by the US Government is
 subject to restrictions as set forth in subparagraphs (a)
 and (c) of the Commercial Computer Software - Restricted
 Rights clause in FAR 52.227-19.
  
 Gaussian, Inc.
 340 Quinnipiac St., Bldg. 40, Wallingford CT 06492
  
  
 ---------------------------------------------------------------
 Warning -- This program may not be used in any manner that
 competes with the business of Gaussian, Inc. or will provide
 assistance to any competitor of Gaussian, Inc.  The licensee
 of this program is prohibited from giving any competitor of
 Gaussian, Inc. access to this program.  By using this program,
 the user acknowledges that Gaussian, Inc. is engaged in the
 business of creating and licensing software in the field of
 computational chemistry and represents and warrants to the
 licensee that it is not a competitor of Gaussian, Inc. and that
 it will not use this program in any manner prohibited above.
 ---------------------------------------------------------------
  

 Cite this work as:
 Gaussian 09, Revision A.01,
 M. J. Frisch, G. W. Trucks, H. B. Schlegel, G. E. Scuseria, 
 M. A. Robb, J. R. Cheeseman, G. Scalmani, V. Barone, B. Mennucci, 
 G. A. Petersson, H. Nakatsuji, M. Caricato, X. Li, H. P. Hratchian, 
 A. F. Izmaylov, J. Bloino, G. Zheng, J. L. Sonnenberg, M. Hada, 
 M. Ehara, K. Toyota, R. Fukuda, J. Hasegawa, M. Ishida, T. Nakajima, 
 Y. Honda, O. Kitao, H. Nakai, T. Vreven, J. A. Montgomery, Jr., 
 J. E. Peralta, F. Ogliaro, M. Bearpark, J. J. Heyd, E. Brothers, 
 K. N. Kudin, V. N. Staroverov, R. Kobayashi, J. Normand, 
 K. Raghavachari, A. Rendell, J. C. Burant, S. S. Iyengar, J. Tomasi, 
 M. Cossi, N. Rega, J. M. Millam, M. Klene, J. E. Knox, J. B. Cross, 
 V. Bakken, C. Adamo, J. Jaramillo, R. Gomperts, R. E. Stratmann, 
 O. Yazyev, A. J. Austin, R. Cammi, C. Pomelli, J. W. Ochterski, 
 R. L. Martin, K. Morokuma, V. G. Zakrzewski, G. A. Voth, 
 P. Salvador, J. J. Dannenberg, S. Dapprich, A. D. Daniels, 
 O. Farkas, J. B. Foresman, J. V. Ortiz, J. Cioslowski, 
 and D. J. Fox, Gaussian, Inc., Wallingford CT, 2009.
 
 ******************************************
 Gaussian 09:  EM64L-G09RevA.01  8-May-2009
                28-Oct-2019 
 ******************************************
 %chk=td3-opt.chk
 %NProcShared=4
 Will use up to    4 processors via shared memory.
 Default route:  MP2=Direct MaxDisk=1000GB DenFit
 ----------------------------------------------------------------------
 # cam-b3lyp/aug-cc-pvdz opt(maxcycles=100) nosymm td(root=1,nstates=20
 ) SCRF=PCM int(grid=ultrafine)
 ----------------------------------------------------------------------
 1/6=100,14=-1,18=20,19=15,26=3,38=1/1,3;
 2/9=110,12=2,15=1,17=6,18=5,40=1/2;
 3/5=16,7=10,11=2,16=1,25=1,30=1,70=2201,71=1,72=1,74=-40,75=-5,82=47/1,2,8,3;
 4//1;
 5/5=2,38=5/2;
 8/6=1,10=1,107=1,108=20/1;
 9/8=1,15=2,41=20,42=1/14;
 10/5=4,31=1/2;
 6/7=2,8=2,9=2,10=2/1;
 7/12=6,13=5,14=1,30=1/1,2,3,16;
 1/6=100,14=-1,18=20,19=15/3(2);
 2/9=110,15=1/2;
 99//99;
 2/9=110,15=1/2;
 3/5=16,7=10,11=2,16=1,25=1,30=1,70=2205,71=1,74=-40,75=-5,82=47/1,2,8,3;
 4/5=5,16=3/1;
 5/5=2,38=5/2;
 8/6=1,10=1,107=1,108=20/1;
 9/8=1,15=2,41=20,42=1,49=4/14;
 10/5=4,31=1/2;
 7/12=6,13=5,14=1,30=1/1,2,3,16;
 1/6=100,14=-1,18=20,19=15/3(-8);
 2/9=110,15=1/2;
 6/7=2,8=2,9=2,10=2/1;
 99//99;
 -----
 Title
 -----
 Symbolic Z-matrix:
 Charge =  0 Multiplicity = 1
 6                    -0.27564   0.28671   0.13428 
 7                     1.05338  -0.23154  -0.04474 
 8                    -1.21929   0.00645  -0.6394 
 1                     1.44463  -0.85083   0.66578 
 1                     1.77897   0.19316  -0.63714 
 1                    -0.10227   1.32514   0.52143 
 

 GradGradGradGradGradGradGradGradGradGradGradGradGradGradGradGradGradGrad
 Berny optimization.
 Initialization pass.
                           ----------------------------
                           !    Initial Parameters    !
                           ! (Angstroms and Degrees)  !
 --------------------------                            --------------------------
 ! Name  Definition              Value          Derivative Info.                !
 --------------------------------------------------------------------------------
 ! R1    R(1,2)                  1.4377         estimate D2E/DX2                !
 ! R2    R(1,3)                  1.252          estimate D2E/DX2                !
 ! R3    R(1,6)                  1.1217         estimate D2E/DX2                !
 ! R4    R(2,4)                  1.0205         estimate D2E/DX2                !
 ! R5    R(2,5)                  1.0285         estimate D2E/DX2                !
 ! A1    A(2,1,3)              122.6219         estimate D2E/DX2                !
 ! A2    A(2,1,6)              103.5211         estimate D2E/DX2                !
 ! A3    A(3,1,6)              122.4786         estimate D2E/DX2                !
 ! A4    A(1,2,4)              119.1083         estimate D2E/DX2                !
 ! A5    A(1,2,5)              125.1023         estimate D2E/DX2                !
 ! A6    A(4,2,5)              112.405          estimate D2E/DX2                !
 ! D1    D(3,1,2,4)           -115.8712         estimate D2E/DX2                !
 ! D2    D(3,1,2,5)             86.5242         estimate D2E/DX2                !
 ! D3    D(6,1,2,4)            100.0669         estimate D2E/DX2                !
 ! D4    D(6,1,2,5)            -57.5377         estimate D2E/DX2                !
 --------------------------------------------------------------------------------
 Trust Radius=3.00D-01 FncErr=1.00D-07 GrdErr=1.00D-06
 Number of steps in this run= 100 maximum allowed number of steps= 100.
 GradGradGradGradGradGradGradGradGradGradGradGradGradGradGradGradGradGrad

                          Input orientation:                          
 ---------------------------------------------------------------------
 Center     Atomic      Atomic             Coordinates (Angstroms)
 Number     Number       Type             X           Y           Z
 ---------------------------------------------------------------------
      1          6           0       -0.275643    0.286710    0.134280
      2          7           0        1.053383   -0.231538   -0.044738
      3          8           0       -1.219290    0.006449   -0.639398
      4          1           0        1.444625   -0.850828    0.665783
      5          1           0        1.778966    0.193157   -0.637142
      6          1           0       -0.102271    1.325135    0.521432
 ---------------------------------------------------------------------
                    Distance matrix (angstroms):
                    1          2          3          4          5
     1  C    0.000000
     2  N    1.437685   0.000000
     3  O    1.252036   2.361208   0.000000
     4  H    2.129744   1.020505   3.087858   0.000000
     5  H    2.196648   1.028484   3.004065   1.702734   0.000000
     6  H    1.121727   2.019732   2.081872   2.673675   2.482483
                    6
     6  H    0.000000
 Symmetry turned off by external request.
 Stoichiometry    CH3NO
 Framework group  C1[X(CH3NO)]
 Deg. of freedom    12
 Full point group                 C1      NOp   1
 Rotational constants (GHZ):     68.4341017     10.1480312      9.3958650
 Standard basis: Aug-CC-pVDZ (5D, 7F)
 Integral buffers will be    131072 words long.
 Raffenetti 2 integral format.
 Two-electron integral symmetry is turned off.
    96 basis functions,   162 primitive gaussians,   102 cartesian basis functions
    12 alpha electrons       12 beta electrons
       nuclear repulsion energy        68.6646641002 Hartrees.
 NAtoms=    6 NActive=    6 NUniq=    6 SFac= 7.50D-01 NAtFMM=   80 NAOKFM=F Big=F
 Standard density basis: Auto (5D, 7F)
   327 Density fitting functions
 ------------------------------------------------------------------------------
 Polarizable Continuum Model (PCM)
 =================================
 Model                : PCM.
 Atomic radii         : UFF (Universal Force Field).
 Polarization charges : Total charges.
 Charge compensation  : None.
 Solution method      : Matrix inversion.
 Cavity type          : Scaled VdW (van der Waals Surface) (Alpha=1.100).
 Cavity algorithm     : GePol (No added spheres)
                        Default sphere list used, NSphG=    6.
                        Lebedev-Laikov grids with approx.  5.0 points / Ang**2.
                        Smoothing algorithm: Karplus/York (Gamma=1.0000).
                        Polarization charges: spherical gaussians, with
                                              point-specific exponents (IZeta= 3).
                        Self-potential: point-specific (ISelfS= 7).
                        Self-field    : sphere-specific E.n sum rule (ISelfD= 2).
 1st derivatives      : Analytical E(r).r(x)/FMM algorithm (CHGder, D1EAlg=3).
                        Cavity 1st derivative terms included.
 Solvent              : Water, Eps=  78.355300 Eps(inf)=   1.777849
 ------------------------------------------------------------------------------
 Spheres list:
 ISph  on   Nord    Re0     Alpha      Xe            Ye            Ze
    1   C      1    1.926   1.100     -0.275643      0.286710      0.134280
    2   N      2    1.830   1.100      1.053383     -0.231538     -0.044738
    3   O      3    1.750   1.100     -1.219290      0.006449     -0.639398
    4   H      4    1.443   1.100      1.444625     -0.850828      0.665783
    5   H      5    1.443   1.100      1.778966      0.193157     -0.637142
    6   H      6    1.443   1.100     -0.102271      1.325135      0.521432
 ------------------------------------------------------------------------------
 One-electron integrals computed using PRISM.
 NBasis=    96 RedAO= T  NBF=    96
 NBsUse=    96 1.00D-06 NBFU=    96
 Harris functional with IExCor=20419 diagonalized for initial guess.
 ExpMin= 2.97D-02 ExpMax= 1.17D+04 ExpMxC= 4.01D+02 IAcc=3 IRadAn=         5 AccDes= 0.00D+00
 HarFok:  IExCor=20419 AccDes= 0.00D+00 IRadAn=         5 IDoV= 1
 ScaDFX=  1.000000  1.000000  1.000000  1.000000
 FoFCou: FMM=F IPFlag=           0 FMFlag=      100000 FMFlg1=           0
         NFxFlg=           0 DoJE=T BraDBF=F KetDBF=T FulRan=T
         Omega=  0.000000  0.000000  1.000000  0.000000  0.000000 ICntrl=     500 IOpCl=  0
         NMat0=    1 NMatS0=    1 NMatT0=    0 NMatD0=    1 NMtDS0=    0 NMtDT0=    0
         I1Cent=           4 NGrid=           0.
 Symmetry not used in FoFCou.
 Requested convergence on RMS density matrix=1.00D-08 within 128 cycles.
 Requested convergence on MAX density matrix=1.00D-06.
 Requested convergence on             energy=1.00D-06.
 No special actions if energy rises.
 FoFJK:  IHMeth= 1 ICntrl=     0 DoSepK=T KAlg= 1 I1Cent= 0 FoldK=F
 FoFJK:  IHMeth= 1 ICntrl=     0 DoSepK=T KAlg= 1 I1Cent= 0 FoldK=F
 FoFJK:  IHMeth= 1 ICntrl=     0 DoSepK=T KAlg= 1 I1Cent= 0 FoldK=F
 FoFJK:  IHMeth= 1 ICntrl=     0 DoSepK=T KAlg= 1 I1Cent= 0 FoldK=F
 FoFJK:  IHMeth= 1 ICntrl=     0 DoSepK=T KAlg= 1 I1Cent= 0 FoldK=F
 FoFJK:  IHMeth= 1 ICntrl=     0 DoSepK=T KAlg= 1 I1Cent= 0 FoldK=F
 FoFJK:  IHMeth= 1 ICntrl=     0 DoSepK=T KAlg= 1 I1Cent= 0 FoldK=F
 FoFJK:  IHMeth= 1 ICntrl=     0 DoSepK=T KAlg= 1 I1Cent= 0 FoldK=F
 FoFJK:  IHMeth= 1 ICntrl=     0 DoSepK=T KAlg= 1 I1Cent= 0 FoldK=F
 FoFJK:  IHMeth= 1 ICntrl=     0 DoSepK=T KAlg= 1 I1Cent= 0 FoldK=F
 FoFJK:  IHMeth= 1 ICntrl=     0 DoSepK=T KAlg= 1 I1Cent= 0 FoldK=F
 FoFJK:  IHMeth= 1 ICntrl=     0 DoSepK=T KAlg= 1 I1Cent= 0 FoldK=F
 Error on total polarization charges =  0.01152
 SCF Done:  E(RCAM-B3LYP) =  -169.796663358     A.U. after   12 cycles
             Convg  =    0.9394D-08             -V/T =  2.0079
 ExpMin= 2.97D-02 ExpMax= 1.17D+04 ExpMxC= 4.01D+02 IAcc=3 IRadAn=         5 AccDes= 0.00D+00
 HarFok:  IExCor=  205 AccDes= 0.00D+00 IRadAn=         5 IDoV=-2
 ScaDFX=  1.000000  1.000000  1.000000  1.000000
 Range of M.O.s used for correlation:     4    96
 NBasis=    96 NAE=    12 NBE=    12 NFC=     3 NFV=     0
 NROrb=     93 NOA=     9 NOB=     9 NVA=    84 NVB=    84

 **** Warning!!: The largest alpha MO coefficient is  0.14854017D+02

 NEqPCM:  Using equilibrium solvation (IEInf=0, Eps=  78.3553, EpsInf=   1.7778)
    80 initial guesses have been made.
 Convergence on wavefunction:    0.000001000000000
 Iteration     1 Dimension    80 NMult    80
 CISAX will form    80 AO SS matrices at one time.
 FoFJK:  IHMeth= 1 ICntrl=     0 DoSepK=T KAlg= 1 I1Cent= 0 FoldK=F
 FoFJK:  IHMeth= 1 ICntrl=     0 DoSepK=T KAlg= 1 I1Cent= 0 FoldK=F
 New state      9 was old state     13
 New state     11 was old state      9
 New state     12 was old state     11
 New state     13 was old state     12
 New state     14 was old state     15
 New state     15 was old state     14
 New state     16 was old state     17
 New state     17 was old state     16
 No map to state     20
 Iteration     2 Dimension   120 NMult   120
 FoFJK:  IHMeth= 1 ICntrl=     0 DoSepK=T KAlg= 1 I1Cent= 0 FoldK=F
 FoFJK:  IHMeth= 1 ICntrl=     0 DoSepK=T KAlg= 1 I1Cent= 0 FoldK=F
 New state      9 was old state     12
 New state     10 was old state      9
 New state     11 was old state     10
 New state     12 was old state     11
 New state     18 was old state     19
 New state     19 was old state     18
 Iteration     3 Dimension   160 NMult   160
 FoFJK:  IHMeth= 1 ICntrl=     0 DoSepK=T KAlg= 1 I1Cent= 0 FoldK=F
 FoFJK:  IHMeth= 1 ICntrl=     0 DoSepK=T KAlg= 1 I1Cent= 0 FoldK=F
 Iteration     4 Dimension   200 NMult   200
 FoFJK:  IHMeth= 1 ICntrl=     0 DoSepK=T KAlg= 1 I1Cent= 0 FoldK=F
 FoFJK:  IHMeth= 1 ICntrl=     0 DoSepK=T KAlg= 1 I1Cent= 0 FoldK=F
 Iteration     5 Dimension   240 NMult   240
 FoFJK:  IHMeth= 1 ICntrl=     0 DoSepK=T KAlg= 1 I1Cent= 0 FoldK=F
 FoFJK:  IHMeth= 1 ICntrl=     0 DoSepK=T KAlg= 1 I1Cent= 0 FoldK=F
 Iteration     6 Dimension   280 NMult   280
 FoFJK:  IHMeth= 1 ICntrl=     0 DoSepK=T KAlg= 1 I1Cent= 0 FoldK=F
 FoFJK:  IHMeth= 1 ICntrl=     0 DoSepK=T KAlg= 1 I1Cent= 0 FoldK=F
 Iteration     7 Dimension   308 NMult   308
 FoFJK:  IHMeth= 1 ICntrl=     0 DoSepK=T KAlg= 1 I1Cent= 0 FoldK=F
 FoFJK:  IHMeth= 1 ICntrl=     0 DoSepK=T KAlg= 1 I1Cent= 0 FoldK=F
 Iteration     8 Dimension   310 NMult   310
 FoFJK:  IHMeth= 1 ICntrl=     0 DoSepK=T KAlg= 1 I1Cent= 0 FoldK=F
 FoFJK:  IHMeth= 1 ICntrl=     0 DoSepK=T KAlg= 1 I1Cent= 0 FoldK=F
 ***********************************************************************
 Excited states from <AA,BB:AA,BB> singles matrix:
 ***********************************************************************
 
 Ground to excited state transition electric dipole moments (Au):
       state          X           Y           Z        Dip. S.      Osc.
         1        -0.0249     -0.0904     -0.0054      0.0088      0.0007
         2         0.0621     -0.1158      0.0095      0.0174      0.0016
         3         0.1915      0.3722      0.3475      0.2959      0.0440
         4        -0.2068      0.4364      0.1420      0.2533      0.0438
         5         0.2377     -0.1962     -0.2360      0.1507      0.0265
         6        -0.3785      0.1647      0.0489      0.1728      0.0323
         7        -0.1102      0.1616     -0.0401      0.0398      0.0075
         8        -0.9128     -0.2237     -0.6178      1.2649      0.2453
         9        -0.4230      0.3891      0.0423      0.3321      0.0686
        10         0.3664      0.2894      0.1431      0.2385      0.0497
        11         0.0276      0.4066      0.3045      0.2588      0.0545
        12        -0.1315     -0.0153     -0.3419      0.1344      0.0285
        13        -0.0547      0.1774      0.0359      0.0357      0.0078
        14        -0.5860      0.0166     -0.3808      0.4887      0.1075
        15        -0.3411      0.2768      0.1461      0.2143      0.0484
        16         0.1863     -0.3416     -0.0758      0.1572      0.0367
        17        -0.0378     -0.0542     -0.1567      0.0289      0.0068
        18         0.1249      0.2278     -0.1411      0.0874      0.0209
        19         0.0549     -0.1349     -0.1705      0.0503      0.0121
        20         0.1181     -0.1349      0.0728      0.0375      0.0092
 Ground to excited state transition velocity dipole moments (Au):
       state          X           Y           Z        Dip. S.      Osc.
         1         0.0037      0.0137      0.0011      0.0002      0.0011
         2        -0.0088      0.0173     -0.0027      0.0004      0.0018
         3        -0.0427     -0.0830     -0.0778      0.0148      0.0441
         4         0.0516     -0.1104     -0.0354      0.0161      0.0414
         5        -0.0606      0.0497      0.0605      0.0098      0.0248
         6         0.1057     -0.0469     -0.0142      0.0136      0.0323
         7         0.0272     -0.0458      0.0080      0.0029      0.0068
         8         0.2638      0.0658      0.1755      0.1047      0.2400
         9         0.1309     -0.1188     -0.0125      0.0314      0.0676
        10        -0.1134     -0.0906     -0.0417      0.0228      0.0486
        11        -0.0081     -0.1265     -0.0938      0.0249      0.0524
        12         0.0404      0.0027      0.1082      0.0134      0.0279
        13         0.0182     -0.0564     -0.0090      0.0036      0.0073
        14         0.1912     -0.0075      0.1266      0.0526      0.1063
        15         0.1143     -0.0848     -0.0415      0.0220      0.0432
        16        -0.0638      0.1226      0.0314      0.0201      0.0382
        17         0.0115      0.0178      0.0564      0.0036      0.0068
        18        -0.0399     -0.0816      0.0497      0.0107      0.0199
        19        -0.0159      0.0473      0.0659      0.0068      0.0126
        20        -0.0388      0.0446     -0.0248      0.0041      0.0075
 Ground to excited state transition magnetic dipole moments (Au):
       state          X           Y           Z
         1        -0.5868      0.0264     -0.3032
         2        -0.7594     -0.2461     -0.5569
         3        -0.0107      0.2477     -0.3443
         4         0.0248     -0.0205      0.1593
         5         0.0979      0.0745     -0.0517
         6        -0.2991     -0.2621      0.3406
         7        -0.0073     -0.1284      0.0067
         8         0.3003     -0.2254     -0.1926
         9         0.1899     -0.1773     -0.4248
        10        -0.1921     -0.1663      0.4709
        11        -0.1523      0.2277     -0.1283
        12         0.1396      0.0842     -0.2260
        13         0.0225      0.1834     -0.0168
        14        -0.5891      1.2302      0.4001
        15         0.1245      0.0998     -0.1869
        16        -0.0789     -0.0499      0.2179
        17         0.4535      0.2239      0.3572
        18         0.0814      0.1457      0.2268
        19        -0.0318      0.2850      0.1644
        20         0.1244      0.0691      0.1335
 <0|del|b> * <b|rxdel|0> + <0|del|b> * <b|delr+rdel|0>
 Rotatory Strengths (R) in cgs (10**-40 erg-esu-cm/Gauss)
       state          XX          YY          ZZ    R(velocity)
         1        -1.1884     -7.2508     -3.7769     -4.0720
 Total R(velocity) tensor for State=          1
                 1             2             3 
      1  -0.118836D+01  0.795668D-01  0.293393D+01
      2   0.232512D+02 -0.725079D+01  0.115124D+02
      3   0.411009D+01 -0.801525D+00 -0.377693D+01
         2        -8.2747     20.6984      7.0844      6.5027
 Total R(velocity) tensor for State=          2
                 1             2             3 
      1  -0.827468D+01 -0.641048D+01 -0.142215D+02
      2   0.328931D+02  0.206984D+02  0.257661D+02
      3  -0.272334D+01 -0.280362D+00  0.708442D+01
         3         6.3554     10.2253      4.6234      7.0680
 Total R(velocity) tensor for State=          3
                 1             2             3 
      1   0.635537D+01  0.727381D+01 -0.112506D+02
      2  -0.246387D+02  0.102253D+02  0.263123D+01
      3  -0.489864D+00 -0.408223D+01  0.462344D+01
         4        -9.6211     -6.1078      9.9945     -1.9115
 Total R(velocity) tensor for State=          4
                 1             2             3 
      1  -0.962108D+01  0.753482D+01 -0.375169D+02
      2   0.248425D+01 -0.610785D+01  0.226696D+02
      3  -0.134377D+02 -0.948030D+01  0.999449D+01
         5         8.5315    -17.3917     -5.5163     -4.7921
 Total R(velocity) tensor for State=          5
                 1             2             3 
      1   0.853155D+01  0.153648D+02 -0.407801D+01
      2   0.114656D+02 -0.173917D+02  0.257898D+02
      3   0.131611D+01  0.831550D+01 -0.551625D+01
         6         8.0543    -24.9635    -43.9916    -20.3003
 Total R(velocity) tensor for State=          6
                 1             2             3 
      1   0.805428D+01  0.397194D+02 -0.714305D+02
      2  -0.148799D+02 -0.249635D+02 -0.283756D+02
      3   0.381792D+01  0.218874D+02 -0.439916D+02
         7         8.7972     -0.3920      5.8835      4.7629
 Total R(velocity) tensor for State=          7
                 1             2             3 
      1   0.879716D+01  0.480352D+01 -0.239125D+01
      2   0.279814D+01 -0.391987D+00 -0.117658D+02
      3   0.137584D+02  0.919130D+01  0.588349D+01
         8       -51.4588     97.3382     28.5299     24.8031
 Total R(velocity) tensor for State=          8
                 1             2             3 
      1  -0.514588D+02  0.553976D+02  0.566007D+02
      2  -0.198437D+02  0.973382D+02 -0.664033D+01
      3  -0.447199D+02  0.103279D+03  0.285299D+02
         9        27.0347     -0.8866     90.8373     38.9951
 Total R(velocity) tensor for State=          9
                 1             2             3 
      1   0.270347D+02  0.231492D+02  0.632517D+02
      2  -0.132783D+01 -0.886609D+00 -0.548965D+01
      3   0.935735D+01  0.768337D+00  0.908373D+02
        10         0.3353      0.4669     38.0662     12.9562
 Total R(velocity) tensor for State=         10
                 1             2             3 
      1   0.335333D+00 -0.322668D+02  0.691479D+02
      2  -0.818758D+01  0.466928D+00  0.212297D+02
      3  -0.107449D+02 -0.408756D+01  0.380662D+02
        11       -31.1499     34.4557    -38.0594    -11.5845
 Total R(velocity) tensor for State=         11
                 1             2             3 
      1  -0.311499D+02 -0.465524D+02  0.654246D+02
      2  -0.179324D+02  0.344557D+02 -0.448938D+02
      3  -0.253824D+02  0.298608D+02 -0.380594D+02
        12       -37.8089     -9.6355      6.2134    -13.7437
 Total R(velocity) tensor for State=         12
                 1             2             3 
      1  -0.378089D+02 -0.233882D+01  0.141888D+02
      2   0.576690D+01 -0.963549D+01 -0.191053D+01
      3  -0.157743D+02 -0.125456D+02  0.621343D+01
        13       -24.5329      4.0292     -0.6484     -7.0507
 Total R(velocity) tensor for State=         13
                 1             2             3 
      1  -0.245329D+02 -0.726582D+01 -0.397118D+01
      2   0.979300D+01  0.402915D+01 -0.549500D+01
      3   0.588481D+01  0.199812D+01 -0.648372D+00
        14        49.6008    -66.5477   -135.6147    -50.8539
 Total R(velocity) tensor for State=         14
                 1             2             3 
      1   0.496008D+02 -0.367728D+03 -0.967149D+02
      2   0.101670D+02 -0.665477D+02 -0.193006D+02
      3   0.830787D+02 -0.171253D+03 -0.135615D+03
        15        -0.5202     55.9027    -27.1406      9.4140
 Total R(velocity) tensor for State=         15
                 1             2             3 
      1  -0.520171D+00 -0.131989D+02  0.255258D+02
      2   0.207502D+02  0.559027D+02 -0.570670D+02
      3   0.127758D+02  0.305044D+02 -0.271406D+02
        16        -8.8611     20.1164      0.3360      3.8638
 Total R(velocity) tensor for State=         16
                 1             2             3 
      1  -0.886105D+01 -0.959830D+01  0.194974D+02
      2   0.320726D+02  0.201164D+02 -0.134184D+02
      3   0.110898D+02  0.568244D+01  0.335979D+00
        17        28.5454     24.5214      5.4076     19.4915
 Total R(velocity) tensor for State=         17
                 1             2             3 
      1   0.285454D+02 -0.949017D+01 -0.284576D+01
      2  -0.250994D+02  0.245214D+02 -0.260694D+01
      3  -0.252154D+02 -0.779423D+00  0.540758D+01
        18         9.4347      5.4383    -22.4783     -2.5351
 Total R(velocity) tensor for State=         18
                 1             2             3 
      1   0.943469D+01  0.121634D+02  0.275251D+02
      2  -0.226152D+02  0.543830D+01 -0.920167D+01
      3  -0.294837D+02  0.703334D+00 -0.224783D+02
        19        32.6342      5.7177     10.2054     16.1858
 Total R(velocity) tensor for State=         19
                 1             2             3 
      1   0.326342D+02  0.392080D+01  0.506790D+01
      2   0.146029D+02  0.571773D+01 -0.574956D+00
      3   0.560285D+01 -0.123422D+02  0.102054D+02
        20         2.8704     -7.0153     -5.5929     -3.2459
 Total R(velocity) tensor for State=         20
                 1             2             3 
      1   0.287041D+01  0.127023D+02  0.183660D+02
      2  -0.106470D+02 -0.701527D+01  0.404563D+01
      3  -0.144266D+01 -0.436285D+01 -0.559295D+01
 1/2[<0|r|b>*<b|rxdel|0> + (<0|rxdel|b>*<b|r|0>)*]
 Rotatory Strengths (R) in cgs (10**-40 erg-esu-cm/Gauss)
       state          XX          YY          ZZ     R(length)     R(au)
         1       -10.3472      1.6902     -1.1487     -3.2685     -0.0069
         2        33.3649    -20.1507      3.7442      5.6528      0.0120
         3         1.4437    -65.1789     84.6115      6.9588      0.0148
         4         3.6239      6.3130    -15.9907     -2.0180     -0.0043
         5       -16.4500     10.3376     -8.6338     -4.9154     -0.0104
         6       -80.0746     30.5178    -11.7856    -20.4475     -0.0434
         7        -0.5653     14.6687      0.1905      4.7646      0.0101
         8       193.8740    -35.6463    -84.1583     24.6898      0.0524
         9        56.8107     48.7999     12.6924     39.4343      0.0836
        10        49.7652     34.0264    -47.6425     12.0497      0.0256
        11         2.9748    -65.4806     27.6182    -11.6292     -0.0247
        12        12.9777      0.9113    -54.6301    -13.5804     -0.0288
        13         0.8708    -22.9993      0.4258     -7.2342     -0.0153
        14      -244.0870    -14.4304    107.7503    -50.2557     -0.1066
        15        30.0429    -19.5314     19.3126      9.9413      0.0211
        16        10.3902    -12.0589     11.6810      3.3374      0.0071
        17        12.1244      8.5761     39.5902     20.0969      0.0426
        18        -7.1856    -23.4721     22.6379     -2.6733     -0.0057
        19         1.2332     27.1909     19.8265     16.0835      0.0341
        20       -10.3910      6.5903     -6.8761     -3.5589     -0.0075
  1/2[<0|del|b>*<b|r|0> + (<0|r|b>*<b|del|0>)*] (Au)
       state          X           Y           Z        Dip. S.   Osc.(frdel)
         1        -0.0001     -0.0012      0.0000      0.0013      0.0009
         2        -0.0005     -0.0020      0.0000      0.0026      0.0017
         3        -0.0082     -0.0309     -0.0270      0.0661      0.0441
         4        -0.0107     -0.0482     -0.0050      0.0639      0.0426
         5        -0.0144     -0.0098     -0.0143      0.0384      0.0256
         6        -0.0400     -0.0077     -0.0007      0.0484      0.0323
         7        -0.0030     -0.0074     -0.0003      0.0107      0.0071
         8        -0.2408     -0.0147     -0.1084      0.3639      0.2426
         9        -0.0554     -0.0462     -0.0005      0.1021      0.0681
        10        -0.0415     -0.0262     -0.0060      0.0737      0.0492
        11        -0.0002     -0.0514     -0.0286      0.0802      0.0535
        12        -0.0053      0.0000     -0.0370      0.0424      0.0282
        13        -0.0010     -0.0100     -0.0003      0.0113      0.0075
        14        -0.1120     -0.0001     -0.0482      0.1603      0.1069
        15        -0.0390     -0.0235     -0.0061      0.0685      0.0457
        16        -0.0119     -0.0419     -0.0024      0.0561      0.0374
        17        -0.0004     -0.0010     -0.0088      0.0102      0.0068
        18        -0.0050     -0.0186     -0.0070      0.0306      0.0204
        19        -0.0009     -0.0064     -0.0112      0.0185      0.0123
        20        -0.0046     -0.0060     -0.0018      0.0124      0.0083
 Ground to excited state transition densities written to RWF  633

 Excitation energies and oscillator strengths:
 
 Excited state symmetry could not be determined.
 Excited State   1:      Singlet-?Sym    3.3920 eV  365.52 nm  f=0.0007  <S**2>=0.000
      12 -> 13         0.69743
 This state for optimization and/or second-order correction.
 Copying the excited state density for this state as the 1-particle RhoCI density.
 
 Excited state symmetry could not be determined.
 Excited State   2:      Singlet-?Sym    3.8547 eV  321.64 nm  f=0.0016  <S**2>=0.000
      11 -> 13         0.69437
 
 Excited state symmetry could not be determined.
 Excited State   3:      Singlet-?Sym    6.0699 eV  204.26 nm  f=0.0440  <S**2>=0.000
      12 -> 14         0.64770
      12 -> 15         0.16910
      12 -> 18         0.10753
      12 -> 20        -0.14928
 
 Excited state symmetry could not be determined.
 Excited State   4:      Singlet-?Sym    7.0521 eV  175.81 nm  f=0.0438  <S**2>=0.000
      12 -> 14        -0.12371
      12 -> 15         0.53907
      12 -> 16         0.37242
      12 -> 23        -0.12130
 
 Excited state symmetry could not be determined.
 Excited State   5:      Singlet-?Sym    7.1725 eV  172.86 nm  f=0.0265  <S**2>=0.000
      12 -> 14         0.10730
      12 -> 15        -0.34876
      12 -> 16         0.56282
      12 -> 23        -0.11493
      12 -> 24        -0.10326
 
 Excited state symmetry could not be determined.
 Excited State   6:      Singlet-?Sym    7.6307 eV  162.48 nm  f=0.0323  <S**2>=0.000
      11 -> 14         0.60347
      11 -> 15        -0.17370
      11 -> 17         0.23576
      11 -> 20        -0.13061
 
 Excited state symmetry could not be determined.
 Excited State   7:      Singlet-?Sym    7.7331 eV  160.33 nm  f=0.0075  <S**2>=0.000
      10 -> 13         0.26587
      12 -> 17         0.60933
      12 -> 18         0.10931
 
 Excited state symmetry could not be determined.
 Excited State   8:      Singlet-?Sym    7.9156 eV  156.63 nm  f=0.2453  <S**2>=0.000
       9 -> 13        -0.15584
      10 -> 13         0.54747
      11 -> 15        -0.23973
      11 -> 18        -0.10183
      12 -> 17        -0.25059
 
 Excited state symmetry could not be determined.
 Excited State   9:      Singlet-?Sym    8.4272 eV  147.12 nm  f=0.0686  <S**2>=0.000
       9 -> 13        -0.15759
      10 -> 13         0.19765
      11 -> 14         0.14170
      11 -> 15         0.57460
      11 -> 17         0.17510
 
 Excited state symmetry could not be determined.
 Excited State  10:      Singlet-?Sym    8.5112 eV  145.67 nm  f=0.0497  <S**2>=0.000
      11 -> 14        -0.18044
      11 -> 16         0.31981
      11 -> 17         0.44187
      12 -> 18        -0.33949
 
 Excited state symmetry could not be determined.
 Excited State  11:      Singlet-?Sym    8.6013 eV  144.15 nm  f=0.0545  <S**2>=0.000
      11 -> 14        -0.12836
      11 -> 15        -0.13266
      11 -> 16         0.10721
      11 -> 17         0.29526
      12 -> 14        -0.13788
      12 -> 17        -0.12539
      12 -> 18         0.52296
 
 Excited state symmetry could not be determined.
 Excited State  12:      Singlet-?Sym    8.6691 eV  143.02 nm  f=0.0285  <S**2>=0.000
      11 -> 14         0.13125
      11 -> 16         0.52589
      11 -> 17        -0.32054
      11 -> 18        -0.10415
      11 -> 19         0.14613
      12 -> 19         0.21938
 
 Excited state symmetry could not be determined.
 Excited State  13:      Singlet-?Sym    8.8979 eV  139.34 nm  f=0.0078  <S**2>=0.000
      11 -> 16        -0.19933
      12 -> 18        -0.14479
      12 -> 19         0.64117
 
 Excited state symmetry could not be determined.
 Excited State  14:      Singlet-?Sym    8.9797 eV  138.07 nm  f=0.1075  <S**2>=0.000
       9 -> 13         0.63885
      10 -> 13         0.19268
      11 -> 15         0.11892
 
 Excited state symmetry could not be determined.
 Excited State  15:      Singlet-?Sym    9.2178 eV  134.51 nm  f=0.0484  <S**2>=0.000
      12 -> 14         0.12988
      12 -> 20         0.59879
      12 -> 21        -0.12600
      12 -> 22        -0.22347
      12 -> 24        -0.12847
 
 Excited state symmetry could not be determined.
 Excited State  16:      Singlet-?Sym    9.5373 eV  130.00 nm  f=0.0367  <S**2>=0.000
       8 -> 13        -0.10793
      12 -> 15         0.14904
      12 -> 21         0.55371
      12 -> 22        -0.32470
 
 Excited state symmetry could not be determined.
 Excited State  17:      Singlet-?Sym    9.6584 eV  128.37 nm  f=0.0068  <S**2>=0.000
       7 -> 13         0.29999
       8 -> 13         0.53710
      11 -> 18        -0.13275
      12 -> 20        -0.11995
      12 -> 22        -0.24003
 
 Excited state symmetry could not be determined.
 Excited State  18:      Singlet-?Sym    9.7591 eV  127.04 nm  f=0.0209  <S**2>=0.000
       7 -> 13         0.15053
       8 -> 13         0.24099
      11 -> 18         0.11690
      12 -> 20         0.19316
      12 -> 21         0.33162
      12 -> 22         0.43789
 
 Excited state symmetry could not be determined.
 Excited State  19:      Singlet-?Sym    9.8330 eV  126.09 nm  f=0.0121  <S**2>=0.000
      11 -> 16         0.12655
      11 -> 18         0.61905
      11 -> 22        -0.13153
      12 -> 21        -0.10859
      12 -> 22        -0.14494
 
 Excited state symmetry could not be determined.
 Excited State  20:      Singlet-?Sym    9.9918 eV  124.09 nm  f=0.0092  <S**2>=0.000
      10 -> 14        -0.11427
      11 -> 16        -0.14693
      11 -> 19         0.57416
      12 -> 23        -0.24727
 SavETr:  write IOETrn=   770 NScale= 10 NData=  16 NLR=1 LETran=     370.
 FoFJK:  IHMeth= 1 ICntrl=     0 DoSepK=T KAlg= 1 I1Cent= 0 FoldK=F
 FoFJK:  IHMeth= 1 ICntrl=     0 DoSepK=T KAlg= 1 I1Cent= 0 FoldK=F
          IDoAtm=111111
 NEqPCM:  Using equilibrium solvation (IEInf=0, Eps=  78.3553, EpsInf=   1.7778)
          Differentiating once with respect to electric field.
                with respect to dipole field.
          Differentiating once with respect to nuclear coordinates.
          There are     1 degrees of freedom in the 1st order CPHF.  IDoFFX=0.
 FoFJK:  IHMeth= 1 ICntrl=     0 DoSepK=T KAlg= 1 I1Cent= 0 FoldK=F
 LinEq1:  Iter=  0 NonCon=     1 RMS=3.55D-02 Max=2.75D-01
 AX will form     1 AO Fock derivatives at one time.
 FoFJK:  IHMeth= 1 ICntrl=     0 DoSepK=T KAlg= 1 I1Cent= 0 FoldK=F
 LinEq1:  Iter=  1 NonCon=     1 RMS=1.24D-02 Max=2.28D-01
 FoFJK:  IHMeth= 1 ICntrl=     0 DoSepK=T KAlg= 1 I1Cent= 0 FoldK=F
 LinEq1:  Iter=  2 NonCon=     1 RMS=8.54D-03 Max=8.99D-02
 FoFJK:  IHMeth= 1 ICntrl=     0 DoSepK=T KAlg= 1 I1Cent= 0 FoldK=F
 LinEq1:  Iter=  3 NonCon=     1 RMS=4.63D-03 Max=5.94D-02
 FoFJK:  IHMeth= 1 ICntrl=     0 DoSepK=T KAlg= 1 I1Cent= 0 FoldK=F
 LinEq1:  Iter=  4 NonCon=     1 RMS=2.08D-03 Max=3.93D-02
 FoFJK:  IHMeth= 1 ICntrl=     0 DoSepK=T KAlg= 1 I1Cent= 0 FoldK=F
 LinEq1:  Iter=  5 NonCon=     1 RMS=5.74D-04 Max=8.86D-03
 FoFJK:  IHMeth= 1 ICntrl=     0 DoSepK=T KAlg= 1 I1Cent= 0 FoldK=F
 LinEq1:  Iter=  6 NonCon=     1 RMS=1.36D-04 Max=1.38D-03
 FoFJK:  IHMeth= 1 ICntrl=     0 DoSepK=T KAlg= 1 I1Cent= 0 FoldK=F
 LinEq1:  Iter=  7 NonCon=     1 RMS=2.65D-05 Max=2.03D-04
 FoFJK:  IHMeth= 1 ICntrl=     0 DoSepK=T KAlg= 1 I1Cent= 0 FoldK=F
 LinEq1:  Iter=  8 NonCon=     1 RMS=5.58D-06 Max=4.51D-05
 FoFJK:  IHMeth= 1 ICntrl=     0 DoSepK=T KAlg= 1 I1Cent= 0 FoldK=F
 LinEq1:  Iter=  9 NonCon=     1 RMS=1.04D-06 Max=1.10D-05
 FoFJK:  IHMeth= 1 ICntrl=     0 DoSepK=T KAlg= 1 I1Cent= 0 FoldK=F
 LinEq1:  Iter= 10 NonCon=     1 RMS=2.60D-07 Max=4.49D-06
 FoFJK:  IHMeth= 1 ICntrl=     0 DoSepK=T KAlg= 1 I1Cent= 0 FoldK=F
 LinEq1:  Iter= 11 NonCon=     1 RMS=7.31D-08 Max=1.38D-06
 FoFJK:  IHMeth= 1 ICntrl=     0 DoSepK=T KAlg= 1 I1Cent= 0 FoldK=F
 LinEq1:  Iter= 12 NonCon=     1 RMS=1.65D-08 Max=1.81D-07
 FoFJK:  IHMeth= 1 ICntrl=     0 DoSepK=T KAlg= 1 I1Cent= 0 FoldK=F
 LinEq1:  Iter= 13 NonCon=     1 RMS=2.90D-09 Max=2.88D-08
 FoFJK:  IHMeth= 1 ICntrl=     0 DoSepK=T KAlg= 1 I1Cent= 0 FoldK=F
 LinEq1:  Iter= 14 NonCon=     1 RMS=5.55D-10 Max=5.10D-09
 FoFJK:  IHMeth= 1 ICntrl=     0 DoSepK=T KAlg= 1 I1Cent= 0 FoldK=F
 LinEq1:  Iter= 15 NonCon=     0 RMS=7.59D-11 Max=6.05D-10
 Linear equations converged to 1.000D-10 1.000D-09 after    15 iterations.
 FoFJK:  IHMeth= 1 ICntrl=     0 DoSepK=T KAlg= 1 I1Cent= 0 FoldK=F
 End of Minotr Frequency-dependent properties file   721 does not exist.
 End of Minotr Frequency-dependent properties file   722 does not exist.

 **********************************************************************

            Population analysis using the SCF density.

 **********************************************************************

 Alpha  occ. eigenvalues --  -19.25674 -14.40476 -10.40677  -1.14349  -0.96481
 Alpha  occ. eigenvalues --   -0.70066  -0.58707  -0.56751  -0.54577  -0.45657
 Alpha  occ. eigenvalues --   -0.36459  -0.32183
 Alpha virt. eigenvalues --   -0.03467   0.01682   0.03633   0.04388   0.06084
 Alpha virt. eigenvalues --    0.09209   0.10246   0.12720   0.14074   0.14170
 Alpha virt. eigenvalues --    0.17085   0.17379   0.19145   0.21160   0.24115
 Alpha virt. eigenvalues --    0.24328   0.25738   0.28206   0.30407   0.31308
 Alpha virt. eigenvalues --    0.32445   0.36683   0.38881   0.43017   0.44612
 Alpha virt. eigenvalues --    0.46983   0.48579   0.49240   0.51828   0.55527
 Alpha virt. eigenvalues --    0.56689   0.57986   0.58657   0.60779   0.66068
 Alpha virt. eigenvalues --    0.66920   0.71717   0.72881   0.77864   0.79020
 Alpha virt. eigenvalues --    0.82859   0.87925   0.93039   0.98543   1.04486
 Alpha virt. eigenvalues --    1.09808   1.10377   1.13244   1.18729   1.23847
 Alpha virt. eigenvalues --    1.27507   1.33070   1.43550   1.46560   1.54282
 Alpha virt. eigenvalues --    1.58060   1.61520   1.74996   1.77412   1.79229
 Alpha virt. eigenvalues --    1.88091   1.94864   1.96391   2.01842   2.05687
 Alpha virt. eigenvalues --    2.09152   2.11104   2.15543   2.18056   2.25499
 Alpha virt. eigenvalues --    2.30463   2.49100   2.53426   2.58475   2.69611
 Alpha virt. eigenvalues --    2.78094   2.93022   3.03718   3.22145   3.38239
 Alpha virt. eigenvalues --    3.39024   3.43878   3.53933   3.67200
          Condensed to atoms (all electrons):
              1          2          3          4          5          6
     1  C    4.631807   0.373340   0.282774  -0.148770  -0.084447   0.151321
     2  N    0.373340   6.112351  -0.029555   0.392886   0.358514  -0.081263
     3  O    0.282774  -0.029555   8.207481   0.010325   0.003475  -0.032614
     4  H   -0.148770   0.392886   0.010325   0.935172  -0.173055   0.017009
     5  H   -0.084447   0.358514   0.003475  -0.173055   0.902884   0.011457
     6  H    0.151321  -0.081263  -0.032614   0.017009   0.011457   1.107514
 Mulliken atomic charges:
              1
     1  C    0.793976
     2  N   -0.126271
     3  O   -0.441886
     4  H   -0.033568
     5  H   -0.018828
     6  H   -0.173423
 Sum of Mulliken atomic charges =   0.00000
 Mulliken charges with hydrogens summed into heavy atoms:
              1
     1  C    0.620553
     2  N   -0.178667
     3  O   -0.441886
 Sum of Mulliken charges with hydrogens summed into heavy atoms =   0.00000
 Electronic spatial extent (au):  <R**2>=            159.5050
 Charge=              0.0000 electrons
 Dipole moment (field-independent basis, Debye):
    X=              3.4420    Y=              1.1726    Z=              2.0947  Tot=              4.1964
 Quadrupole moment (field-independent basis, Debye-Ang):
   XX=            -18.5446   YY=            -17.6931   ZZ=            -18.4579
   XY=             -0.0759   XZ=             -2.1244   YZ=             -2.0043
 Traceless Quadrupole moment (field-independent basis, Debye-Ang):
   XX=             -0.3127   YY=              0.5387   ZZ=             -0.2260
   XY=             -0.0759   XZ=             -2.1244   YZ=             -2.0043
 Octapole moment (field-independent basis, Debye-Ang**2):
  XXX=             14.8668  YYY=              0.3444  ZZZ=              9.8621  XYY=              1.4905
  XXY=             -1.8757  XXZ=              3.6144  XZZ=              2.9465  YZZ=             -0.2941
  YYZ=              4.9317  XYZ=             -2.3381
 Hexadecapole moment (field-independent basis, Debye-Ang**3):
 XXXX=           -121.3307 YYYY=            -33.0000 ZZZZ=            -37.9357 XXXY=              7.2713
 XXXZ=            -18.8120 YYYX=              7.6809 YYYZ=             -3.0408 ZZZX=            -12.3781
 ZZZY=             -3.9616 XXYY=            -27.0170 XXZZ=            -26.6128 YYZZ=            -11.7526
 XXYZ=             -4.5580 YYXZ=             -2.4458 ZZXY=              2.1821
 N-N= 6.866466410019D+01 E-N=-5.350774923739D+02  KE= 1.684704627791D+02
 D1PCM: PCM CHGder 1st derivatives, ID1Alg=3 FixD1E=F DoIter=F DoCFld=F I1PDM=6.
 Calling FoFJK, ICntrl=      5127 FMM=F ISym2X=0 I1Cent= 0 IOpClX= 0 NMat=1 NMatS=1 NMatT=0.
 FoFJK:  IHMeth= 1 ICntrl=  5127 DoSepK=T KAlg= 1 I1Cent= 0 FoldK=F
 -------------------------------------------------------------------
 Center     Atomic                   Forces (Hartrees/Bohr)
 Number     Number              X              Y              Z
 -------------------------------------------------------------------
      1        6           0.025647966    0.004031755    0.016502865
      2        7           0.001368455   -0.000457489    0.007795909
      3        8          -0.025358513   -0.004748681   -0.018370681
      4        1           0.000390014   -0.002260185   -0.001789005
      5        1          -0.001627441    0.002662177   -0.001683363
      6        1          -0.000420481    0.000772422   -0.002455724
 -------------------------------------------------------------------
 Cartesian Forces:  Max     0.025647966 RMS     0.010646326

 GradGradGradGradGradGradGradGradGradGradGradGradGradGradGradGradGradGrad
 Berny optimization.
 Internal  Forces:  Max     0.031526417 RMS     0.008508987
 Search for a local minimum.
 Step number   1 out of a maximum of  100
 All quantities printed in internal units (Hartrees-Bohrs-Radians)
 Mixed Optimization -- RFO/linear search
 Second derivative matrix not updated -- first step.
 The second derivative matrix:
                          R1        R2        R3        R4        R5
           R1           0.39905
           R2           0.00000   0.82489
           R3           0.00000   0.00000   0.31389
           R4           0.00000   0.00000   0.00000   0.44258
           R5           0.00000   0.00000   0.00000   0.00000   0.43012
           A1           0.00000   0.00000   0.00000   0.00000   0.00000
           A2           0.00000   0.00000   0.00000   0.00000   0.00000
           A3           0.00000   0.00000   0.00000   0.00000   0.00000
           A4           0.00000   0.00000   0.00000   0.00000   0.00000
           A5           0.00000   0.00000   0.00000   0.00000   0.00000
           A6           0.00000   0.00000   0.00000   0.00000   0.00000
           D1           0.00000   0.00000   0.00000   0.00000   0.00000
           D2           0.00000   0.00000   0.00000   0.00000   0.00000
           D3           0.00000   0.00000   0.00000   0.00000   0.00000
           D4           0.00000   0.00000   0.00000   0.00000   0.00000
                          A1        A2        A3        A4        A5
           A1           0.25000
           A2           0.00000   0.16000
           A3           0.00000   0.00000   0.16000
           A4           0.00000   0.00000   0.00000   0.16000
           A5           0.00000   0.00000   0.00000   0.00000   0.16000
           A6           0.00000   0.00000   0.00000   0.00000   0.00000
           D1           0.00000   0.00000   0.00000   0.00000   0.00000
           D2           0.00000   0.00000   0.00000   0.00000   0.00000
           D3           0.00000   0.00000   0.00000   0.00000   0.00000
           D4           0.00000   0.00000   0.00000   0.00000   0.00000
                          A6        D1        D2        D3        D4
           A6           0.16000
           D1           0.00000   0.01193
           D2           0.00000   0.00000   0.01193
           D3           0.00000   0.00000   0.00000   0.01193
           D4           0.00000   0.00000   0.00000   0.00000   0.01193
     Eigenvalues ---    0.01193   0.01645   0.03284   0.16000   0.16000
     Eigenvalues ---    0.16000   0.22879   0.31389   0.39905   0.43012
     Eigenvalues ---    0.44258   0.824891000.000001000.000001000.00000
 RFO step:  Lambda=-2.22041902D-03 EMin= 1.19327824D-02
 Linear search not attempted -- first point.
 Iteration  1 RMS(Cart)=  0.04328839 RMS(Int)=  0.00194942
 Iteration  2 RMS(Cart)=  0.00166108 RMS(Int)=  0.00063005
 Iteration  3 RMS(Cart)=  0.00000153 RMS(Int)=  0.00063004
 Iteration  4 RMS(Cart)=  0.00000000 RMS(Int)=  0.00063004
 Variable       Old X    -DE/DX   Delta X   Delta X   Delta X     New X
                                 (Linear)    (Quad)   (Total)
    R1        2.71683  -0.00039   0.00000  -0.00098  -0.00098   2.71585
    R2        2.36600   0.03153   0.00000   0.03812   0.03812   2.40412
    R3        2.11976  -0.00020   0.00000  -0.00064  -0.00064   2.11911
    R4        1.92848   0.00027   0.00000   0.00060   0.00060   1.92908
    R5        1.94355   0.00093   0.00000   0.00215   0.00215   1.94570
    A1        2.14016   0.00461   0.00000   0.01378   0.01356   2.15372
    A2        1.80678  -0.00158   0.00000  -0.01747  -0.01771   1.78907
    A3        2.13765  -0.00307   0.00000  -0.02843  -0.02875   2.10891
    A4        2.07883   0.00423   0.00000   0.03549   0.03414   2.11297
    A5        2.18345  -0.00525   0.00000  -0.02308  -0.02443   2.15902
    A6        1.96184   0.00150   0.00000   0.01920   0.01780   1.97963
    D1       -2.02233   0.00105   0.00000   0.08852   0.08877  -1.93357
    D2        1.51013  -0.00092   0.00000  -0.01699  -0.01705   1.49308
    D3        1.74650   0.00274   0.00000   0.14545   0.14551   1.89201
    D4       -1.00422   0.00077   0.00000   0.03994   0.03969  -0.96453
         Item               Value     Threshold  Converged?
 Maximum Force            0.031526     0.000450     NO 
 RMS     Force            0.008509     0.000300     NO 
 Maximum Displacement     0.088073     0.001800     NO 
 RMS     Displacement     0.043243     0.001200     NO 
 Predicted change in Energy=-1.154765D-03
 GradGradGradGradGradGradGradGradGradGradGradGradGradGradGradGradGradGrad

                          Input orientation:                          
 ---------------------------------------------------------------------
 Center     Atomic      Atomic             Coordinates (Angstroms)
 Number     Number       Type             X           Y           Z
 ---------------------------------------------------------------------
      1          6           0       -0.274247    0.284888    0.150181
      2          7           0        1.060888   -0.220749   -0.014734
      3          8           0       -1.233160   -0.000317   -0.635727
      4          1           0        1.452678   -0.897434    0.641528
      5          1           0        1.768350    0.220479   -0.618833
      6          1           0       -0.094739    1.342219    0.477803
 ---------------------------------------------------------------------
                    Distance matrix (angstroms):
                    1          2          3          4          5
     1  C    0.000000
     2  N    1.437167   0.000000
     3  O    1.272206   2.386813   0.000000
     4  H    2.149785   1.020824   3.106432   0.000000
     5  H    2.183514   1.029622   3.009667   1.714027   0.000000
     6  H    1.121386   2.005227   2.082872   2.727150   2.435572
                    6
     6  H    0.000000
 Symmetry turned off by external request.
 Stoichiometry    CH3NO
 Framework group  C1[X(CH3NO)]
 Deg. of freedom    12
 Full point group                 C1      NOp   1
 Rotational constants (GHZ):     68.4476630      9.9584697      9.2615486
 Standard basis: Aug-CC-pVDZ (5D, 7F)
 Integral buffers will be    131072 words long.
 Raffenetti 2 integral format.
 Two-electron integral symmetry is turned off.
    96 basis functions,   162 primitive gaussians,   102 cartesian basis functions
    12 alpha electrons       12 beta electrons
       nuclear repulsion energy        68.2041401869 Hartrees.
 NAtoms=    6 NActive=    6 NUniq=    6 SFac= 7.50D-01 NAtFMM=   80 NAOKFM=F Big=F
 Standard density basis: Auto (5D, 7F)
   327 Density fitting functions
 ------------------------------------------------------------------------------
 Polarizable Continuum Model (PCM)
 =================================
 Model                : PCM.
 Atomic radii         : UFF (Universal Force Field).
 Polarization charges : Total charges.
 Charge compensation  : None.
 Solution method      : Matrix inversion.
 Cavity type          : Scaled VdW (van der Waals Surface) (Alpha=1.100).
 Cavity algorithm     : GePol (No added spheres)
                        Default sphere list used, NSphG=    6.
                        Lebedev-Laikov grids with approx.  5.0 points / Ang**2.
                        Smoothing algorithm: Karplus/York (Gamma=1.0000).
                        Polarization charges: spherical gaussians, with
                                              point-specific exponents (IZeta= 3).
                        Self-potential: point-specific (ISelfS= 7).
                        Self-field    : sphere-specific E.n sum rule (ISelfD= 2).
 1st derivatives      : Analytical E(r).r(x)/FMM algorithm (CHGder, D1EAlg=3).
                        Cavity 1st derivative terms included.
 Solvent              : Water, Eps=  78.355300 Eps(inf)=   1.777849
 ------------------------------------------------------------------------------
 Spheres list:
 ISph  on   Nord    Re0     Alpha      Xe            Ye            Ze
    1   C      1    1.926   1.100     -0.274247      0.284888      0.150181
    2   N      2    1.830   1.100      1.060888     -0.220749     -0.014734
    3   O      3    1.750   1.100     -1.233160     -0.000317     -0.635727
    4   H      4    1.443   1.100      1.452678     -0.897434      0.641528
    5   H      5    1.443   1.100      1.768350      0.220479     -0.618833
    6   H      6    1.443   1.100     -0.094739      1.342219      0.477803
 ------------------------------------------------------------------------------
 One-electron integrals computed using PRISM.
 NBasis=    96 RedAO= T  NBF=    96
 NBsUse=    96 1.00D-06 NBFU=    96
 Initial guess read from the read-write file.
 B after Tr=     0.000000    0.000000    0.000000
         Rot=    1.000000    0.000000    0.000000    0.000000 Ang=   0.00 deg.
 Harris functional with IExCor=20419 diagonalized for initial guess.
 ExpMin= 2.97D-02 ExpMax= 1.17D+04 ExpMxC= 4.01D+02 IAcc=3 IRadAn=         5 AccDes= 0.00D+00
 HarFok:  IExCor=20419 AccDes= 0.00D+00 IRadAn=         5 IDoV= 1
 ScaDFX=  1.000000  1.000000  1.000000  1.000000
 FoFCou: FMM=F IPFlag=           0 FMFlag=      100000 FMFlg1=           0
         NFxFlg=           0 DoJE=T BraDBF=F KetDBF=T FulRan=T
         Omega=  0.000000  0.000000  1.000000  0.000000  0.000000 ICntrl=     500 IOpCl=  0
         NMat0=    1 NMatS0=    1 NMatT0=    0 NMatD0=    1 NMtDS0=    0 NMtDT0=    0
         I1Cent=           4 NGrid=           0.
 Symmetry not used in FoFCou.
 Requested convergence on RMS density matrix=1.00D-08 within 128 cycles.
 Requested convergence on MAX density matrix=1.00D-06.
 Requested convergence on             energy=1.00D-06.
 No special actions if energy rises.
 FoFJK:  IHMeth= 1 ICntrl=     0 DoSepK=T KAlg= 1 I1Cent= 0 FoldK=F
 FoFJK:  IHMeth= 1 ICntrl=     0 DoSepK=T KAlg= 1 I1Cent= 0 FoldK=F
 FoFJK:  IHMeth= 1 ICntrl=     0 DoSepK=T KAlg= 1 I1Cent= 0 FoldK=F
 FoFJK:  IHMeth= 1 ICntrl=     0 DoSepK=T KAlg= 1 I1Cent= 0 FoldK=F
 FoFJK:  IHMeth= 1 ICntrl=     0 DoSepK=T KAlg= 1 I1Cent= 0 FoldK=F
 FoFJK:  IHMeth= 1 ICntrl=     0 DoSepK=T KAlg= 1 I1Cent= 0 FoldK=F
 FoFJK:  IHMeth= 1 ICntrl=     0 DoSepK=T KAlg= 1 I1Cent= 0 FoldK=F
 FoFJK:  IHMeth= 1 ICntrl=     0 DoSepK=T KAlg= 1 I1Cent= 0 FoldK=F
 FoFJK:  IHMeth= 1 ICntrl=     0 DoSepK=T KAlg= 1 I1Cent= 0 FoldK=F
 FoFJK:  IHMeth= 1 ICntrl=     0 DoSepK=T KAlg= 1 I1Cent= 0 FoldK=F
 FoFJK:  IHMeth= 1 ICntrl=     0 DoSepK=T KAlg= 1 I1Cent= 0 FoldK=F
 FoFJK:  IHMeth= 1 ICntrl=     0 DoSepK=T KAlg= 1 I1Cent= 0 FoldK=F
 FoFJK:  IHMeth= 1 ICntrl=     0 DoSepK=T KAlg= 1 I1Cent= 0 FoldK=F
 Error on total polarization charges =  0.01159
 SCF Done:  E(RCAM-B3LYP) =  -169.790354903     A.U. after   13 cycles
             Convg  =    0.3431D-08             -V/T =  2.0082
 ExpMin= 2.97D-02 ExpMax= 1.17D+04 ExpMxC= 4.01D+02 IAcc=3 IRadAn=         5 AccDes= 0.00D+00
 HarFok:  IExCor=  205 AccDes= 0.00D+00 IRadAn=         5 IDoV=-2
 ScaDFX=  1.000000  1.000000  1.000000  1.000000
 Range of M.O.s used for correlation:     4    96
 NBasis=    96 NAE=    12 NBE=    12 NFC=     3 NFV=     0
 NROrb=     93 NOA=     9 NOB=     9 NVA=    84 NVB=    84

 **** Warning!!: The largest alpha MO coefficient is  0.14159688D+02

 NEqPCM:  Using equilibrium solvation (IEInf=0, Eps=  78.3553, EpsInf=   1.7778)
 Generating guess from densities on rwf.
 Convergence on wavefunction:    0.000001000000000
 Iteration     1 Dimension    40 NMult    40
 CISAX will form    40 AO SS matrices at one time.
 FoFJK:  IHMeth= 1 ICntrl=     0 DoSepK=T KAlg= 1 I1Cent= 0 FoldK=F
 FoFJK:  IHMeth= 1 ICntrl=     0 DoSepK=T KAlg= 1 I1Cent= 0 FoldK=F
 New state     13 was old state     14
 New state     14 was old state     13
 New state     16 was old state     17
 New state     17 was old state     16
 Iteration     2 Dimension    80 NMult    80
 FoFJK:  IHMeth= 1 ICntrl=     0 DoSepK=T KAlg= 1 I1Cent= 0 FoldK=F
 FoFJK:  IHMeth= 1 ICntrl=     0 DoSepK=T KAlg= 1 I1Cent= 0 FoldK=F
 Iteration     3 Dimension   120 NMult   120
 FoFJK:  IHMeth= 1 ICntrl=     0 DoSepK=T KAlg= 1 I1Cent= 0 FoldK=F
 FoFJK:  IHMeth= 1 ICntrl=     0 DoSepK=T KAlg= 1 I1Cent= 0 FoldK=F
 Iteration     4 Dimension   160 NMult   160
 FoFJK:  IHMeth= 1 ICntrl=     0 DoSepK=T KAlg= 1 I1Cent= 0 FoldK=F
 FoFJK:  IHMeth= 1 ICntrl=     0 DoSepK=T KAlg= 1 I1Cent= 0 FoldK=F
 Iteration     5 Dimension   200 NMult   200
 FoFJK:  IHMeth= 1 ICntrl=     0 DoSepK=T KAlg= 1 I1Cent= 0 FoldK=F
 FoFJK:  IHMeth= 1 ICntrl=     0 DoSepK=T KAlg= 1 I1Cent= 0 FoldK=F
 Iteration     6 Dimension   240 NMult   240
 FoFJK:  IHMeth= 1 ICntrl=     0 DoSepK=T KAlg= 1 I1Cent= 0 FoldK=F
 FoFJK:  IHMeth= 1 ICntrl=     0 DoSepK=T KAlg= 1 I1Cent= 0 FoldK=F
 Iteration     7 Dimension   270 NMult   270
 FoFJK:  IHMeth= 1 ICntrl=     0 DoSepK=T KAlg= 1 I1Cent= 0 FoldK=F
 FoFJK:  IHMeth= 1 ICntrl=     0 DoSepK=T KAlg= 1 I1Cent= 0 FoldK=F
 Iteration     8 Dimension   280 NMult   280
 FoFJK:  IHMeth= 1 ICntrl=     0 DoSepK=T KAlg= 1 I1Cent= 0 FoldK=F
 FoFJK:  IHMeth= 1 ICntrl=     0 DoSepK=T KAlg= 1 I1Cent= 0 FoldK=F
 Iteration     9 Dimension   284 NMult   284
 FoFJK:  IHMeth= 1 ICntrl=     0 DoSepK=T KAlg= 1 I1Cent= 0 FoldK=F
 FoFJK:  IHMeth= 1 ICntrl=     0 DoSepK=T KAlg= 1 I1Cent= 0 FoldK=F
 Iteration    10 Dimension   286 NMult   286
 FoFJK:  IHMeth= 1 ICntrl=     0 DoSepK=T KAlg= 1 I1Cent= 0 FoldK=F
 FoFJK:  IHMeth= 1 ICntrl=     0 DoSepK=T KAlg= 1 I1Cent= 0 FoldK=F
 ***********************************************************************
 Excited states from <AA,BB:AA,BB> singles matrix:
 ***********************************************************************
 
 Ground to excited state transition electric dipole moments (Au):
       state          X           Y           Z        Dip. S.      Osc.
         1         0.0829     -0.1089     -0.0015      0.0187      0.0015
         2         0.0365     -0.1072      0.0135      0.0130      0.0012
         3         0.2029      0.3470      0.3608      0.2918      0.0433
         4        -0.1863      0.4308      0.1338      0.2382      0.0410
         5         0.2382     -0.1821     -0.2232      0.1397      0.0246
         6         0.2610      0.1525      0.3942      0.2468      0.0458
         7        -0.7535      0.1055     -0.2974      0.6673      0.1249
         8        -0.6439     -0.2648     -0.4109      0.6536      0.1250
         9        -0.2752      0.3351      0.1000      0.1980      0.0407
        10         0.2355      0.3955      0.1167      0.2255      0.0469
        11        -0.1786      0.3693      0.2068      0.2110      0.0443
        12        -0.1620     -0.0601     -0.3660      0.1638      0.0348
        13        -0.6316     -0.0479     -0.3942      0.5566      0.1192
        14        -0.0614      0.1732      0.0282      0.0346      0.0075
        15        -0.3928      0.2590      0.1072      0.2329      0.0526
        16        -0.0356      0.0751     -0.2105      0.0512      0.0117
        17         0.2375     -0.3213     -0.1286      0.1762      0.0413
        18         0.1513      0.2588     -0.0564      0.0930      0.0222
        19         0.0509     -0.1341     -0.1458      0.0418      0.0101
        20         0.1381     -0.0742      0.0331      0.0257      0.0063
 Ground to excited state transition velocity dipole moments (Au):
       state          X           Y           Z        Dip. S.      Osc.
         1        -0.0090      0.0151      0.0007      0.0003      0.0018
         2        -0.0049      0.0153     -0.0032      0.0003      0.0013
         3        -0.0451     -0.0774     -0.0807      0.0145      0.0435
         4         0.0462     -0.1084     -0.0329      0.0150      0.0387
         5        -0.0610      0.0460      0.0574      0.0091      0.0231
         6        -0.0703     -0.0433     -0.1064      0.0181      0.0434
         7         0.2082     -0.0296      0.0794      0.0505      0.1200
         8         0.1864      0.0762      0.1170      0.0542      0.1261
         9         0.0851     -0.1016     -0.0303      0.0185      0.0400
        10        -0.0727     -0.1227     -0.0330      0.0214      0.0458
        11         0.0562     -0.1149     -0.0634      0.0204      0.0432
        12         0.0503      0.0165      0.1159      0.0162      0.0340
        13         0.2009      0.0133      0.1276      0.0568      0.1180
        14         0.0208     -0.0548     -0.0067      0.0035      0.0071
        15         0.1315     -0.0791     -0.0276      0.0243      0.0478
        16         0.0119     -0.0291      0.0715      0.0061      0.0118
        17        -0.0809      0.1148      0.0492      0.0222      0.0420
        18        -0.0486     -0.0925      0.0193      0.0113      0.0211
        19        -0.0148      0.0473      0.0571      0.0057      0.0106
        20        -0.0478      0.0223     -0.0107      0.0029      0.0053
 Ground to excited state transition magnetic dipole moments (Au):
       state          X           Y           Z
         1        -0.5720      0.0453     -0.2698
         2        -0.7748     -0.2422     -0.5640
         3        -0.0224      0.2632     -0.3415
         4         0.0305     -0.0249      0.1658
         5         0.0862      0.0706     -0.0584
         6        -0.3442     -0.0090      0.3575
         7        -0.0988     -0.3419      0.1431
         8         0.2400     -0.1455     -0.1948
         9         0.2545     -0.3039     -0.4735
        10        -0.1993     -0.0792      0.3898
        11        -0.2057      0.4041     -0.1777
        12         0.0959      0.1766     -0.1905
        13        -0.5534      1.1614      0.2941
        14        -0.0266      0.2479      0.0094
        15         0.1700      0.1611     -0.1466
        16         0.4103      0.4073      0.3793
        17         0.0219      0.0324      0.3412
        18        -0.0369      0.0487      0.1206
        19        -0.0716      0.2739      0.1305
        20         0.1403      0.1692      0.2709
 <0|del|b> * <b|rxdel|0> + <0|del|b> * <b|delr+rdel|0>
 Rotatory Strengths (R) in cgs (10**-40 erg-esu-cm/Gauss)
       state          XX          YY          ZZ    R(velocity)
         1        -0.1884     15.3200     18.8783     11.3366
 Total R(velocity) tensor for State=          1
                 1             2             3 
      1  -0.188407D+00  0.200997D+00 -0.708441D+01
      2   0.267382D+02  0.153200D+02  0.144077D+02
      3   0.338198D+01  0.118314D+01  0.188783D+02
         2        -6.1690     14.8645      1.0620      3.2525
 Total R(velocity) tensor for State=          2
                 1             2             3 
      1  -0.616898D+01 -0.376252D+01 -0.870061D+01
      2   0.314167D+02  0.148645D+02  0.235808D+02
      3  -0.422223D+01 -0.112066D+01  0.106197D+01
         3         7.9601     13.1408      4.9275      8.6761
 Total R(velocity) tensor for State=          3
                 1             2             3 
      1   0.796005D+01  0.103754D+02 -0.144035D+02
      2  -0.282485D+02  0.131408D+02  0.319222D+01
      3  -0.412942D+01 -0.272960D+01  0.492748D+01
         4        -7.8544     -4.5463      8.6980     -1.2342
 Total R(velocity) tensor for State=          4
                 1             2             3 
      1  -0.785439D+01  0.739484D+01 -0.353620D+02
      2   0.590249D+01 -0.454634D+01  0.232475D+02
      3  -0.126661D+02 -0.804463D+01  0.869801D+01
         5         6.7784    -16.2177     -4.9235     -4.7876
 Total R(velocity) tensor for State=          5
                 1             2             3 
      1   0.677839D+01  0.141846D+02 -0.417023D+01
      2   0.126246D+02 -0.162177D+02  0.264503D+02
      3   0.313866D+01  0.102969D+02 -0.492353D+01
         6       -59.7851      0.7602     24.8456    -11.3931
 Total R(velocity) tensor for State=          6
                 1             2             3 
      1  -0.597851D+02 -0.103943D+01  0.399127D+02
      2  -0.315709D+02  0.760244D+00  0.205438D+02
      3  -0.517884D+02  0.229945D+02  0.248456D+02
         7        42.7547     -1.4483    -39.0422      0.7547
 Total R(velocity) tensor for State=          7
                 1             2             3 
      1   0.427547D+02  0.863021D+02 -0.800031D+02
      2   0.266506D+02 -0.144828D+01 -0.704745D+02
      3   0.298389D+02  0.105252D+03 -0.390422D+02
         8       -41.6801     54.9136     13.4651      8.8995
 Total R(velocity) tensor for State=          8
                 1             2             3 
      1  -0.416801D+02  0.235892D+02  0.510197D+02
      2  -0.296515D+02  0.549136D+02  0.114467D+02
      3  -0.141713D+02  0.139769D+02  0.134651D+02
         9        64.1636     13.8921     75.4199     51.1585
 Total R(velocity) tensor for State=          9
                 1             2             3 
      1   0.641636D+02  0.433783D+02  0.348881D+02
      2   0.101346D+02  0.138921D+02 -0.180821D+02
      3   0.254202D+02 -0.119647D+01  0.754199D+02
        10        -1.5492      2.3250     24.9437      8.5732
 Total R(velocity) tensor for State=         10
                 1             2             3 
      1  -0.154922D+01 -0.111834D+02  0.450107D+02
      2  -0.201091D+02  0.232497D+01  0.356338D+02
      3  -0.103532D+02 -0.576687D+00  0.249437D+02
        11       -53.3680     10.9184    -62.4310    -34.9602
 Total R(velocity) tensor for State=         11
                 1             2             3 
      1  -0.533680D+02 -0.551971D+02  0.526999D+02
      2  -0.301455D+02  0.109184D+02 -0.464941D+02
      3  -0.282502D+02  0.206427D+02 -0.624310D+02
        12       -32.9814     -7.7737      8.9669    -10.5961
 Total R(velocity) tensor for State=         12
                 1             2             3 
      1  -0.329814D+02 -0.148836D+02  0.164455D+02
      2   0.749862D+01 -0.777372D+01 -0.214601D+01
      3  -0.136026D+02 -0.214369D+02  0.896689D+01
        13        64.6094    -83.5294   -109.1618    -42.6939
 Total R(velocity) tensor for State=         13
                 1             2             3 
      1   0.646094D+02 -0.385844D+03 -0.613885D+02
      2   0.232007D+02 -0.835294D+02 -0.277992D+02
      3   0.808122D+02 -0.173042D+03 -0.109162D+03
        14       -28.3354      1.8921     -4.3567    -10.2667
 Total R(velocity) tensor for State=         14
                 1             2             3 
      1  -0.283354D+02 -0.100038D+02 -0.625565D+01
      2   0.400076D+01  0.189207D+01 -0.305688D+01
      3   0.345058D+01  0.184126D+01 -0.435666D+01
        15       -11.5171     65.1549    -25.1192      9.5062
 Total R(velocity) tensor for State=         15
                 1             2             3 
      1  -0.115171D+02 -0.270540D+02  0.226071D+02
      2   0.285786D+02  0.651549D+02 -0.504410D+02
      3   0.158990D+02  0.352188D+02 -0.251192D+02
        16         8.5311     33.9394     -0.9784     13.8307
 Total R(velocity) tensor for State=         16
                 1             2             3 
      1   0.853112D+01 -0.136364D+02 -0.696474D+01
      2  -0.207974D+01  0.339394D+02  0.141419D+02
      3  -0.220263D+02 -0.114396D+02 -0.978445D+00
        17        24.4765     23.1492     -9.9353     12.5635
 Total R(velocity) tensor for State=         17
                 1             2             3 
      1   0.244765D+02 -0.887467D+00  0.422794D+02
      2   0.839922D+01  0.231492D+02 -0.401803D+02
      3   0.369286D+01  0.686255D+01 -0.993527D+01
        18         5.0349      7.8339    -13.6153     -0.2489
 Total R(velocity) tensor for State=         18
                 1             2             3 
      1   0.503489D+01  0.269506D+01  0.255537D+02
      2  -0.192478D+02  0.783385D+01 -0.109456D+02
      3  -0.221054D+02  0.877843D+01 -0.136153D+02
        19        27.9999      3.6734     10.3809     14.0181
 Total R(velocity) tensor for State=         19
                 1             2             3 
      1   0.279999D+02  0.322010D+01  0.457523D+01
      2   0.151016D+02  0.367342D+01  0.863666D+00
      3   0.698637D+01 -0.103524D+02  0.103809D+02
        20         2.6915    -11.3815     -2.5748     -3.7549
 Total R(velocity) tensor for State=         20
                 1             2             3 
      1   0.269152D+01  0.207606D+02  0.311343D+02
      2  -0.524072D+01 -0.113815D+02 -0.308971D+00
      3   0.202233D+00 -0.806347D+00 -0.257478D+01
 1/2[<0|r|b>*<b|rxdel|0> + (<0|rxdel|b>*<b|r|0>)*]
 Rotatory Strengths (R) in cgs (10**-40 erg-esu-cm/Gauss)
       state          XX          YY          ZZ     R(length)     R(au)
         1        33.5424      3.4855     -0.2860     12.2473      0.0260
         2        20.0152    -18.3607      5.3953      2.3499      0.0050
         3         3.2143    -64.5889     87.1315      8.5856      0.0182
         4         4.0244      7.5874    -15.6936     -1.3606     -0.0029
         5       -14.5180      9.0870     -9.2237     -4.8849     -0.0104
         6        63.5267      0.9704    -99.6715    -11.7248     -0.0249
         7       -52.6544     25.4978     30.0998      0.9811      0.0021
         8       109.2644    -27.2596    -56.6128      8.4640      0.0180
         9        49.5232     72.0314     33.4825     51.6790      0.1096
        10        33.1833     22.1557    -32.1735      7.7218      0.0164
        11       -25.9733   -105.5204     25.9896    -35.1680     -0.0746
        12        10.9829      7.5068    -49.3068    -10.2723     -0.0218
        13      -247.1857     39.3174     81.9747    -41.9645     -0.0890
        14        -1.1564    -30.3598     -0.1878    -10.5680     -0.0224
        15        47.2274    -29.5175     11.1176      9.6091      0.0204
        16        10.3399    -21.6166     56.4661     15.0631      0.0320
        17        -3.6719      7.3553     31.0281     11.5705      0.0245
        18         3.9437     -8.9072      4.8066     -0.0523     -0.0001
        19         2.5759     25.9780     13.4494     14.0011      0.0297
        20       -13.6966      8.8760     -6.3471     -3.7226     -0.0079
  1/2[<0|del|b>*<b|r|0> + (<0|r|b>*<b|del|0>)*] (Au)
       state          X           Y           Z        Dip. S.   Osc.(frdel)
         1        -0.0007     -0.0016      0.0000      0.0024      0.0016
         2        -0.0002     -0.0016      0.0000      0.0019      0.0012
         3        -0.0092     -0.0269     -0.0291      0.0651      0.0434
         4        -0.0086     -0.0467     -0.0044      0.0597      0.0398
         5        -0.0145     -0.0084     -0.0128      0.0357      0.0238
         6        -0.0183     -0.0066     -0.0420      0.0669      0.0446
         7        -0.1569     -0.0031     -0.0236      0.1836      0.1224
         8        -0.1200     -0.0202     -0.0481      0.1883      0.1255
         9        -0.0234     -0.0340     -0.0030      0.0605      0.0403
        10        -0.0171     -0.0485     -0.0039      0.0695      0.0463
        11        -0.0100     -0.0424     -0.0131      0.0656      0.0437
        12        -0.0082     -0.0010     -0.0424      0.0516      0.0344
        13        -0.1269     -0.0006     -0.0503      0.1778      0.1186
        14        -0.0013     -0.0095     -0.0002      0.0110      0.0073
        15        -0.0516     -0.0205     -0.0030      0.0751      0.0501
        16        -0.0004     -0.0022     -0.0151      0.0177      0.0118
        17        -0.0192     -0.0369     -0.0063      0.0624      0.0416
        18        -0.0074     -0.0239     -0.0011      0.0324      0.0216
        19        -0.0008     -0.0063     -0.0083      0.0154      0.0103
        20        -0.0066     -0.0017     -0.0004      0.0086      0.0057
 Ground to excited state transition densities written to RWF  633

 Excitation energies and oscillator strengths:
 
 Excited state symmetry could not be determined.
 Excited State   1:      Singlet-?Sym    3.1949 eV  388.07 nm  f=0.0015  <S**2>=0.000
      12 -> 13         0.69933
 This state for optimization and/or second-order correction.
 Copying the excited state density for this state as the 1-particle RhoCI density.
 
 Excited state symmetry could not be determined.
 Excited State   2:      Singlet-?Sym    3.6420 eV  340.43 nm  f=0.0012  <S**2>=0.000
      11 -> 13         0.69678
 
 Excited state symmetry could not be determined.
 Excited State   3:      Singlet-?Sym    6.0604 eV  204.58 nm  f=0.0433  <S**2>=0.000
      12 -> 14         0.64977
      12 -> 15         0.15760
      12 -> 18        -0.11008
      12 -> 20        -0.15288
 
 Excited state symmetry could not be determined.
 Excited State   4:      Singlet-?Sym    7.0187 eV  176.65 nm  f=0.0410  <S**2>=0.000
      12 -> 14        -0.11060
      12 -> 15         0.55829
      12 -> 16         0.34943
      12 -> 23        -0.12534
 
 Excited state symmetry could not be determined.
 Excited State   5:      Singlet-?Sym    7.1880 eV  172.49 nm  f=0.0246  <S**2>=0.000
      12 -> 14         0.10764
      12 -> 15        -0.32657
      12 -> 16         0.57621
      12 -> 23        -0.11911
 
 Excited state symmetry could not be determined.
 Excited State   6:      Singlet-?Sym    7.5787 eV  163.60 nm  f=0.0458  <S**2>=0.000
       9 -> 13         0.11570
      10 -> 13        -0.48116
      11 -> 14         0.43163
      11 -> 17         0.12720
      11 -> 18        -0.10795
      12 -> 17        -0.12389
 
 Excited state symmetry could not be determined.
 Excited State   7:      Singlet-?Sym    7.6390 eV  162.30 nm  f=0.1249  <S**2>=0.000
      10 -> 13         0.35173
      11 -> 14         0.41030
      11 -> 15        -0.21768
      11 -> 17         0.21362
      11 -> 20        -0.10579
      12 -> 17         0.27016
 
 Excited state symmetry could not be determined.
 Excited State   8:      Singlet-?Sym    7.8059 eV  158.83 nm  f=0.1250  <S**2>=0.000
       9 -> 13        -0.10412
      10 -> 13         0.23129
      11 -> 15        -0.12745
      12 -> 15         0.10001
      12 -> 17        -0.59613
      12 -> 18         0.12297
 
 Excited state symmetry could not be determined.
 Excited State   9:      Singlet-?Sym    8.3870 eV  147.83 nm  f=0.0407  <S**2>=0.000
       9 -> 13        -0.23183
      10 -> 13         0.10865
      11 -> 14         0.17429
      11 -> 15         0.58044
      11 -> 18        -0.11405
      12 -> 18        -0.10304
 
 Excited state symmetry could not be determined.
 Excited State  10:      Singlet-?Sym    8.4867 eV  146.09 nm  f=0.0469  <S**2>=0.000
       9 -> 13         0.10630
      11 -> 14        -0.15832
      11 -> 16         0.35969
      11 -> 17         0.46149
      11 -> 19         0.10540
      12 -> 18         0.26853
 
 Excited state symmetry could not be determined.
 Excited State  11:      Singlet-?Sym    8.5751 eV  144.59 nm  f=0.0443  <S**2>=0.000
       9 -> 13         0.16192
      11 -> 17         0.22253
      12 -> 14        -0.14516
      12 -> 17        -0.13384
      12 -> 18        -0.55697
      12 -> 19         0.11431
 
 Excited state symmetry could not be determined.
 Excited State  12:      Singlet-?Sym    8.6749 eV  142.92 nm  f=0.0348  <S**2>=0.000
      11 -> 14         0.14934
      11 -> 16         0.48644
      11 -> 17        -0.37344
      11 -> 18         0.11046
      11 -> 19         0.13227
      12 -> 19         0.21735
 
 Excited state symmetry could not be determined.
 Excited State  13:      Singlet-?Sym    8.7385 eV  141.88 nm  f=0.1192  <S**2>=0.000
       9 -> 13         0.59404
      10 -> 13         0.20633
      11 -> 14         0.11447
      11 -> 15         0.19098
      11 -> 16        -0.12688
 
 Excited state symmetry could not be determined.
 Excited State  14:      Singlet-?Sym    8.8789 eV  139.64 nm  f=0.0075  <S**2>=0.000
      11 -> 16        -0.20517
      12 -> 18         0.16747
      12 -> 19         0.63051
 
 Excited state symmetry could not be determined.
 Excited State  15:      Singlet-?Sym    9.2199 eV  134.48 nm  f=0.0526  <S**2>=0.000
      12 -> 14         0.13058
      12 -> 20         0.58550
      12 -> 22        -0.26445
      12 -> 24        -0.12730
 
 Excited state symmetry could not be determined.
 Excited State  16:      Singlet-?Sym    9.3620 eV  132.43 nm  f=0.0117  <S**2>=0.000
       7 -> 13         0.26240
       8 -> 13         0.62518
      12 -> 20        -0.10891
 
 Excited state symmetry could not be determined.
 Excited State  17:      Singlet-?Sym    9.5721 eV  129.53 nm  f=0.0413  <S**2>=0.000
      12 -> 15         0.14850
      12 -> 21         0.61006
      12 -> 22        -0.21994
 
 Excited state symmetry could not be determined.
 Excited State  18:      Singlet-?Sym    9.7274 eV  127.46 nm  f=0.0222  <S**2>=0.000
      11 -> 18        -0.17209
      12 -> 18        -0.12287
      12 -> 19         0.10325
      12 -> 20         0.24411
      12 -> 21         0.20374
      12 -> 22         0.53219
 
 Excited state symmetry could not be determined.
 Excited State  19:      Singlet-?Sym    9.8191 eV  126.27 nm  f=0.0101  <S**2>=0.000
      11 -> 16         0.13510
      11 -> 18        -0.61749
      11 -> 22        -0.11972
      12 -> 22        -0.16953
 
 Excited state symmetry could not be determined.
 Excited State  20:      Singlet-?Sym    9.9697 eV  124.36 nm  f=0.0063  <S**2>=0.000
      10 -> 14        -0.30315
      11 -> 16        -0.11348
      11 -> 19         0.45520
      12 -> 16        -0.10684
      12 -> 23        -0.30575
 SavETr:  write IOETrn=   770 NScale= 10 NData=  16 NLR=1 LETran=     370.
 FoFJK:  IHMeth= 1 ICntrl=     0 DoSepK=T KAlg= 1 I1Cent= 0 FoldK=F
 FoFJK:  IHMeth= 1 ICntrl=     0 DoSepK=T KAlg= 1 I1Cent= 0 FoldK=F
          IDoAtm=111111
 NEqPCM:  Using equilibrium solvation (IEInf=0, Eps=  78.3553, EpsInf=   1.7778)
          Differentiating once with respect to electric field.
                with respect to dipole field.
          Differentiating once with respect to nuclear coordinates.
          There are     1 degrees of freedom in the 1st order CPHF.  IDoFFX=0.
 FoFJK:  IHMeth= 1 ICntrl=     0 DoSepK=T KAlg= 1 I1Cent= 0 FoldK=F
 LinEq1:  Iter=  0 NonCon=     1 RMS=3.56D-02 Max=2.66D-01
 AX will form     1 AO Fock derivatives at one time.
 FoFJK:  IHMeth= 1 ICntrl=     0 DoSepK=T KAlg= 1 I1Cent= 0 FoldK=F
 LinEq1:  Iter=  1 NonCon=     1 RMS=1.26D-02 Max=2.47D-01
 FoFJK:  IHMeth= 1 ICntrl=     0 DoSepK=T KAlg= 1 I1Cent= 0 FoldK=F
 LinEq1:  Iter=  2 NonCon=     1 RMS=8.62D-03 Max=5.98D-02
 FoFJK:  IHMeth= 1 ICntrl=     0 DoSepK=T KAlg= 1 I1Cent= 0 FoldK=F
 LinEq1:  Iter=  3 NonCon=     1 RMS=4.61D-03 Max=5.60D-02
 FoFJK:  IHMeth= 1 ICntrl=     0 DoSepK=T KAlg= 1 I1Cent= 0 FoldK=F
 LinEq1:  Iter=  4 NonCon=     1 RMS=1.85D-03 Max=3.19D-02
 FoFJK:  IHMeth= 1 ICntrl=     0 DoSepK=T KAlg= 1 I1Cent= 0 FoldK=F
 LinEq1:  Iter=  5 NonCon=     1 RMS=4.97D-04 Max=8.10D-03
 FoFJK:  IHMeth= 1 ICntrl=     0 DoSepK=T KAlg= 1 I1Cent= 0 FoldK=F
 LinEq1:  Iter=  6 NonCon=     1 RMS=1.44D-04 Max=1.74D-03
 FoFJK:  IHMeth= 1 ICntrl=     0 DoSepK=T KAlg= 1 I1Cent= 0 FoldK=F
 LinEq1:  Iter=  7 NonCon=     1 RMS=2.96D-05 Max=2.43D-04
 FoFJK:  IHMeth= 1 ICntrl=     0 DoSepK=T KAlg= 1 I1Cent= 0 FoldK=F
 LinEq1:  Iter=  8 NonCon=     1 RMS=6.20D-06 Max=4.18D-05
 FoFJK:  IHMeth= 1 ICntrl=     0 DoSepK=T KAlg= 1 I1Cent= 0 FoldK=F
 LinEq1:  Iter=  9 NonCon=     1 RMS=1.25D-06 Max=1.85D-05
 FoFJK:  IHMeth= 1 ICntrl=     0 DoSepK=T KAlg= 1 I1Cent= 0 FoldK=F
 LinEq1:  Iter= 10 NonCon=     1 RMS=3.39D-07 Max=6.80D-06
 FoFJK:  IHMeth= 1 ICntrl=     0 DoSepK=T KAlg= 1 I1Cent= 0 FoldK=F
 LinEq1:  Iter= 11 NonCon=     1 RMS=8.56D-08 Max=1.11D-06
 FoFJK:  IHMeth= 1 ICntrl=     0 DoSepK=T KAlg= 1 I1Cent= 0 FoldK=F
 LinEq1:  Iter= 12 NonCon=     1 RMS=1.89D-08 Max=1.90D-07
 FoFJK:  IHMeth= 1 ICntrl=     0 DoSepK=T KAlg= 1 I1Cent= 0 FoldK=F
 LinEq1:  Iter= 13 NonCon=     1 RMS=3.44D-09 Max=2.46D-08
[...]
      12 -> 20         0.35969
      12 -> 21        -0.47775
      12 -> 22         0.21958
 
 Excited state symmetry could not be determined.
 Excited State  14:      Singlet-?Sym    8.9203 eV  138.99 nm  f=0.0173  <S**2>=0.000
      11 -> 15         0.14325
      11 -> 16         0.50933
      11 -> 17         0.10560
      11 -> 19         0.10924
      12 -> 19         0.15283
      12 -> 20         0.10787
      12 -> 21         0.21228
      12 -> 22         0.21384
      12 -> 24        -0.17583
 
 Excited state symmetry could not be determined.
 Excited State  15:      Singlet-?Sym    9.0131 eV  137.56 nm  f=0.0729  <S**2>=0.000
      11 -> 15        -0.24792
      11 -> 16         0.24669
      11 -> 17         0.17140
      12 -> 20        -0.39863
      12 -> 21        -0.21796
      12 -> 22        -0.16875
      12 -> 23         0.25326
 
 Excited state symmetry could not be determined.
 Excited State  16:      Singlet-?Sym    9.1088 eV  136.12 nm  f=0.0030  <S**2>=0.000
      11 -> 16         0.22432
      11 -> 17        -0.26533
      12 -> 15        -0.13974
      12 -> 20         0.16327
      12 -> 21        -0.17761
      12 -> 22        -0.42463
      12 -> 23        -0.27476
 
 Excited state symmetry could not be determined.
 Excited State  17:      Singlet-?Sym    9.2080 eV  134.65 nm  f=0.0358  <S**2>=0.000
      11 -> 17         0.44528
      12 -> 15        -0.10315
      12 -> 20         0.24453
      12 -> 21         0.20511
      12 -> 22        -0.34649
      12 -> 23         0.10541
 
 Excited state symmetry could not be determined.
 Excited State  18:      Singlet-?Sym    9.3976 eV  131.93 nm  f=0.0170  <S**2>=0.000
       7 -> 13         0.29803
       8 -> 13         0.61331
 
 Excited state symmetry could not be determined.
 Excited State  19:      Singlet-?Sym    9.4997 eV  130.51 nm  f=0.1067  <S**2>=0.000
      10 -> 14         0.20874
      11 -> 16        -0.10792
      11 -> 17        -0.19397
      12 -> 20         0.18553
      12 -> 23         0.36970
      12 -> 24        -0.41839
 
 Excited state symmetry could not be determined.
 Excited State  20:      Singlet-?Sym    9.5604 eV  129.69 nm  f=0.0019  <S**2>=0.000
      10 -> 14        -0.55285
      10 -> 17        -0.13278
      10 -> 18         0.10899
      11 -> 16        -0.14922
      12 -> 24        -0.32859
 SavETr:  write IOETrn=   770 NScale= 10 NData=  16 NLR=1 LETran=     370.
 FoFJK:  IHMeth= 1 ICntrl=     0 DoSepK=T KAlg= 1 I1Cent= 0 FoldK=F
 FoFJK:  IHMeth= 1 ICntrl=     0 DoSepK=T KAlg= 1 I1Cent= 0 FoldK=F
          IDoAtm=111111
 NEqPCM:  Using equilibrium solvation (IEInf=0, Eps=  78.3553, EpsInf=   1.7778)
          Differentiating once with respect to electric field.
                with respect to dipole field.
          Differentiating once with respect to nuclear coordinates.
          There are     1 degrees of freedom in the 1st order CPHF.  IDoFFX=0.
 FoFJK:  IHMeth= 1 ICntrl=     0 DoSepK=T KAlg= 1 I1Cent= 0 FoldK=F
 LinEq1:  Iter=  0 NonCon=     1 RMS=2.83D-02 Max=4.24D-01
 AX will form     1 AO Fock derivatives at one time.
 FoFJK:  IHMeth= 1 ICntrl=     0 DoSepK=T KAlg= 1 I1Cent= 0 FoldK=F
 LinEq1:  Iter=  1 NonCon=     1 RMS=1.11D-02 Max=1.23D-01
 FoFJK:  IHMeth= 1 ICntrl=     0 DoSepK=T KAlg= 1 I1Cent= 0 FoldK=F
 LinEq1:  Iter=  2 NonCon=     1 RMS=8.18D-03 Max=1.18D-01
 FoFJK:  IHMeth= 1 ICntrl=     0 DoSepK=T KAlg= 1 I1Cent= 0 FoldK=F
 LinEq1:  Iter=  3 NonCon=     1 RMS=3.67D-03 Max=4.39D-02
 FoFJK:  IHMeth= 1 ICntrl=     0 DoSepK=T KAlg= 1 I1Cent= 0 FoldK=F
 LinEq1:  Iter=  4 NonCon=     1 RMS=1.68D-03 Max=2.24D-02
 FoFJK:  IHMeth= 1 ICntrl=     0 DoSepK=T KAlg= 1 I1Cent= 0 FoldK=F
 LinEq1:  Iter=  5 NonCon=     1 RMS=6.09D-04 Max=1.10D-02
 FoFJK:  IHMeth= 1 ICntrl=     0 DoSepK=T KAlg= 1 I1Cent= 0 FoldK=F
 LinEq1:  Iter=  6 NonCon=     1 RMS=1.79D-04 Max=2.44D-03
 FoFJK:  IHMeth= 1 ICntrl=     0 DoSepK=T KAlg= 1 I1Cent= 0 FoldK=F
 LinEq1:  Iter=  7 NonCon=     1 RMS=4.77D-05 Max=5.90D-04
 FoFJK:  IHMeth= 1 ICntrl=     0 DoSepK=T KAlg= 1 I1Cent= 0 FoldK=F
 LinEq1:  Iter=  8 NonCon=     1 RMS=1.19D-05 Max=1.95D-04
 FoFJK:  IHMeth= 1 ICntrl=     0 DoSepK=T KAlg= 1 I1Cent= 0 FoldK=F
 LinEq1:  Iter=  9 NonCon=     1 RMS=2.76D-06 Max=2.94D-05
 FoFJK:  IHMeth= 1 ICntrl=     0 DoSepK=T KAlg= 1 I1Cent= 0 FoldK=F
 LinEq1:  Iter= 10 NonCon=     1 RMS=5.88D-07 Max=5.65D-06
 FoFJK:  IHMeth= 1 ICntrl=     0 DoSepK=T KAlg= 1 I1Cent= 0 FoldK=F
 LinEq1:  Iter= 11 NonCon=     1 RMS=1.19D-07 Max=8.49D-07
 FoFJK:  IHMeth= 1 ICntrl=     0 DoSepK=T KAlg= 1 I1Cent= 0 FoldK=F
 LinEq1:  Iter= 12 NonCon=     1 RMS=2.61D-08 Max=1.98D-07
 FoFJK:  IHMeth= 1 ICntrl=     0 DoSepK=T KAlg= 1 I1Cent= 0 FoldK=F
 LinEq1:  Iter= 13 NonCon=     1 RMS=3.62D-09 Max=3.18D-08
 FoFJK:  IHMeth= 1 ICntrl=     0 DoSepK=T KAlg= 1 I1Cent= 0 FoldK=F
 LinEq1:  Iter= 14 NonCon=     1 RMS=4.82D-10 Max=3.93D-09
 FoFJK:  IHMeth= 1 ICntrl=     0 DoSepK=T KAlg= 1 I1Cent= 0 FoldK=F
 LinEq1:  Iter= 15 NonCon=     1 RMS=9.87D-11 Max=1.40D-09
 FoFJK:  IHMeth= 1 ICntrl=     0 DoSepK=T KAlg= 1 I1Cent= 0 FoldK=F
 LinEq1:  Iter= 16 NonCon=     0 RMS=1.72D-11 Max=1.48D-10
 Linear equations converged to 1.000D-10 1.000D-09 after    16 iterations.
 FoFJK:  IHMeth= 1 ICntrl=     0 DoSepK=T KAlg= 1 I1Cent= 0 FoldK=F
 End of Minotr Frequency-dependent properties file   721 does not exist.
 End of Minotr Frequency-dependent properties file   722 does not exist.
 D1PCM: PCM CHGder 1st derivatives, ID1Alg=3 FixD1E=F DoIter=F DoCFld=F I1PDM=6.
 Calling FoFJK, ICntrl=      5127 FMM=F ISym2X=0 I1Cent= 0 IOpClX= 0 NMat=1 NMatS=1 NMatT=0.
 FoFJK:  IHMeth= 1 ICntrl=  5127 DoSepK=T KAlg= 1 I1Cent= 0 FoldK=F
 -------------------------------------------------------------------
 Center     Atomic                   Forces (Hartrees/Bohr)
 Number     Number              X              Y              Z
 -------------------------------------------------------------------
      1        6           0.000304418    0.000054922    0.000286336
      2        7           0.000071442   -0.000151154   -0.000049575
      3        8          -0.000267008   -0.000055165   -0.000231391
      4        1          -0.000003929    0.000088465    0.000012806
      5        1          -0.000046435    0.000050295    0.000077472
      6        1          -0.000058487    0.000012636   -0.000095648
 -------------------------------------------------------------------
 Cartesian Forces:  Max     0.000304418 RMS     0.000142864

 GradGradGradGradGradGradGradGradGradGradGradGradGradGradGradGradGradGrad
 Berny optimization.
 Using GEDIIS/GDIIS optimizer.
 Internal  Forces:  Max     0.000331079 RMS     0.000113587
 Search for a local minimum.
 Step number  15 out of a maximum of  100
 All quantities printed in internal units (Hartrees-Bohrs-Radians)
 Mixed Optimization -- En-DIIS/RFO-DIIS
 Swaping is turned off.
 Update second derivatives using D2CorX and points   10   11   12   13   14
                                                     15
 DE= -3.68D-06 DEPred=-3.18D-06 R= 1.16D+00
 SS=  1.41D+00  RLast= 1.49D-02 DXNew= 1.0091D+00 4.4665D-02
 Trust test= 1.16D+00 RLast= 1.49D-02 DXMaxT set to 6.00D-01
 The second derivative matrix:
                          R1        R2        R3        R4        R5
           R1           0.37259
           R2           0.07588   0.65086
           R3           0.00851   0.00299   0.31473
           R4           0.00941   0.00755   0.00019   0.44137
           R5           0.00296   0.00389  -0.00071   0.00010   0.43167
           A1           0.04569   0.06466   0.00036  -0.00800  -0.00341
           A2           0.03002  -0.03587   0.00686   0.00658   0.01160
           A3          -0.01506  -0.00947  -0.00435  -0.00625  -0.00142
           A4           0.00568  -0.00348  -0.00402   0.01457   0.01369
           A5           0.01272   0.03049   0.00707   0.00774   0.01050
           A6           0.00839  -0.00219  -0.00273   0.01498   0.01594
           D1          -0.00693  -0.00525   0.00698  -0.00265  -0.00367
           D2           0.00592  -0.01048   0.00863  -0.00393  -0.00434
           D3          -0.01682   0.00954  -0.00581   0.00290   0.00346
           D4          -0.00397   0.00432  -0.00416   0.00162   0.00279
                          A1        A2        A3        A4        A5
           A1           0.23622
           A2          -0.06585   0.14947
           A3          -0.07733   0.02607   0.19878
           A4           0.04421   0.00122   0.01494   0.11855
           A5           0.02887  -0.03242  -0.02584  -0.01874   0.13258
           A6           0.03520  -0.03452   0.00133  -0.03580  -0.01918
           D1           0.04228   0.00023  -0.01083   0.00048   0.01657
           D2           0.03537   0.00048  -0.01902  -0.00093   0.01767
           D3          -0.01589   0.00670   0.02077   0.00364  -0.00097
           D4          -0.02280   0.00695   0.01259   0.00223   0.00013
                          A6        D1        D2        D3        D4
           A6           0.12635
           D1           0.00245   0.03884
           D2           0.00281   0.02877   0.04198
           D3          -0.00269  -0.00580  -0.00660   0.01684
           D4          -0.00233  -0.00394  -0.00533   0.00411   0.01466
     Eigenvalues ---    0.01252   0.01860   0.07407   0.12771   0.14228
     Eigenvalues ---    0.16438   0.30492   0.31460   0.37179   0.43253
     Eigenvalues ---    0.44301   0.688801000.000001000.000001000.00000
 En-DIIS/RFO-DIIS IScMMF=        0 using points:    15   14   13
 RFO step:  Lambda=-3.40728330D-07.
 DIIS coeffs:      1.21031     -0.22776      0.01745
 Iteration  1 RMS(Cart)=  0.00097411 RMS(Int)=  0.00000165
 Iteration  2 RMS(Cart)=  0.00000111 RMS(Int)=  0.00000125
 Iteration  3 RMS(Cart)=  0.00000000 RMS(Int)=  0.00000125
 Variable       Old X    -DE/DX   Delta X   Delta X   Delta X     New X
                                  (DIIS)     (GDIIS)  (Total)
    R1        2.68685   0.00002   0.00001  -0.00022  -0.00022   2.68663
    R2        2.45967   0.00033   0.00011   0.00043   0.00054   2.46021
    R3        2.06341   0.00000  -0.00001   0.00003   0.00002   2.06344
    R4        1.92137  -0.00008  -0.00016  -0.00014  -0.00030   1.92107
    R5        1.93347  -0.00008  -0.00014  -0.00016  -0.00029   1.93317
    A1        1.79970   0.00018   0.00006   0.00004   0.00009   1.79979
    A2        2.08361   0.00001  -0.00011   0.00045   0.00034   2.08395
    A3        2.16521  -0.00017  -0.00041  -0.00102  -0.00144   2.16377
    A4        2.03896   0.00004  -0.00004   0.00116   0.00112   2.04009
    A5        2.07566  -0.00005  -0.00070   0.00065  -0.00005   2.07561
    A6        1.96789   0.00004   0.00024   0.00095   0.00118   1.96908
    D1       -1.27510  -0.00005   0.00115  -0.00317  -0.00202  -1.27712
    D2        1.18177   0.00002   0.00050   0.00130   0.00180   1.18357
    D3        2.52470   0.00000   0.00185  -0.00208  -0.00023   2.52447
    D4       -1.30162   0.00006   0.00120   0.00239   0.00360  -1.29802
         Item               Value     Threshold  Converged?
 Maximum Force            0.000331     0.000450     YES
 RMS     Force            0.000114     0.000300     YES
 Maximum Displacement     0.001513     0.001800     YES
 RMS     Displacement     0.000974     0.001200     YES
 Predicted change in Energy=-4.560489D-07
 Optimization completed.
    -- Stationary point found.
                           ----------------------------
                           !   Optimized Parameters   !
                           ! (Angstroms and Degrees)  !
 --------------------------                            --------------------------
 ! Name  Definition              Value          Derivative Info.                !
 --------------------------------------------------------------------------------
 ! R1    R(1,2)                  1.4218         -DE/DX =    0.0                 !
 ! R2    R(1,3)                  1.3016         -DE/DX =    0.0003              !
 ! R3    R(1,6)                  1.0919         -DE/DX =    0.0                 !
 ! R4    R(2,4)                  1.0167         -DE/DX =   -0.0001              !
 ! R5    R(2,5)                  1.0231         -DE/DX =   -0.0001              !
 ! A1    A(2,1,3)              103.1151         -DE/DX =    0.0002              !
 ! A2    A(2,1,6)              119.382          -DE/DX =    0.0                 !
 ! A3    A(3,1,6)              124.0573         -DE/DX =   -0.0002              !
 ! A4    A(1,2,4)              116.824          -DE/DX =    0.0                 !
 ! A5    A(1,2,5)              118.9264         -DE/DX =    0.0                 !
 ! A6    A(4,2,5)              112.752          -DE/DX =    0.0                 !
 ! D1    D(3,1,2,4)            -73.058          -DE/DX =    0.0                 !
 ! D2    D(3,1,2,5)             67.7103         -DE/DX =    0.0                 !
 ! D3    D(6,1,2,4)            144.6546         -DE/DX =    0.0                 !
 ! D4    D(6,1,2,5)            -74.5771         -DE/DX =    0.0001              !
 --------------------------------------------------------------------------------
 GradGradGradGradGradGradGradGradGradGradGradGradGradGradGradGradGradGrad

                          Input orientation:                          
 ---------------------------------------------------------------------
 Center     Atomic      Atomic             Coordinates (Angstroms)
 Number     Number       Type             X           Y           Z
 ---------------------------------------------------------------------
      1          6           0       -0.182326    0.442825    0.281117
      2          7           0        1.123237   -0.096643    0.119718
      3          8           0       -0.875166   -0.184475   -0.624774
      4          1           0        1.270001   -1.048334    0.446080
      5          1           0        1.642799    0.112603   -0.736496
      6          1           0       -0.298776    1.503110    0.514572
 ---------------------------------------------------------------------
                    Distance matrix (angstroms):
                    1          2          3          4          5
     1  C    0.000000
     2  N    1.421820   0.000000
     3  O    1.301603   2.134384   0.000000
     4  H    2.088066   1.016743   2.548474   0.000000
     5  H    2.115576   1.023147   2.537889   1.698598   0.000000
     6  H    1.091910   2.176521   2.116195   2.995934   2.695996
                    6
     6  H    0.000000
 Symmetry turned off by external request.
 Stoichiometry    CH3NO
 Framework group  C1[X(CH3NO)]
 Deg. of freedom    12
 Full point group                 C1      NOp   1
 Rotational constants (GHZ):     44.8038769     12.8455308     10.6990370

 **********************************************************************

            Population analysis using the SCF density.

 **********************************************************************

 Alpha  occ. eigenvalues --  -19.24283 -14.39928 -10.40447  -1.12509  -0.95149
 Alpha  occ. eigenvalues --   -0.71227  -0.59143  -0.56555  -0.52673  -0.43722
 Alpha  occ. eigenvalues --   -0.38074  -0.29947
 Alpha virt. eigenvalues --   -0.04718   0.01783   0.03321   0.04471   0.06179
 Alpha virt. eigenvalues --    0.09452   0.10426   0.13269   0.13805   0.14228
 Alpha virt. eigenvalues --    0.16279   0.16594   0.19765   0.20926   0.24104
 Alpha virt. eigenvalues --    0.24710   0.25687   0.27568   0.28825   0.32374
 Alpha virt. eigenvalues --    0.34702   0.35951   0.40459   0.42751   0.44829
 Alpha virt. eigenvalues --    0.46094   0.47590   0.48613   0.53021   0.53448
 Alpha virt. eigenvalues --    0.56228   0.57026   0.58893   0.61863   0.65501
 Alpha virt. eigenvalues --    0.68486   0.71927   0.74821   0.79682   0.82446
 Alpha virt. eigenvalues --    0.83819   0.85930   0.92930   0.99583   1.03565
 Alpha virt. eigenvalues --    1.05966   1.07974   1.12997   1.18789   1.21253
 Alpha virt. eigenvalues --    1.27916   1.37165   1.43119   1.46293   1.53249
 Alpha virt. eigenvalues --    1.57615   1.62708   1.72851   1.75593   1.80572
 Alpha virt. eigenvalues --    1.81370   1.90411   1.95402   2.06283   2.07166
 Alpha virt. eigenvalues --    2.09192   2.10645   2.17698   2.20147   2.26678
 Alpha virt. eigenvalues --    2.33354   2.42924   2.53888   2.60480   2.70114
 Alpha virt. eigenvalues --    2.77957   2.89652   3.04117   3.20797   3.38359
 Alpha virt. eigenvalues --    3.40210   3.45394   3.57482   3.62545
          Condensed to atoms (all electrons):
              1          2          3          4          5          6
     1  C    4.697497   0.257464   0.256178  -0.117703  -0.095361   0.152601
     2  N    0.257464   6.279481  -0.091764   0.372153   0.393189  -0.146430
     3  O    0.256178  -0.091764   8.426863  -0.011586  -0.015716  -0.055247
     4  H   -0.117703   0.372153  -0.011586   0.926584  -0.175809   0.033594
     5  H   -0.095361   0.393189  -0.015716  -0.175809   0.907268   0.007790
     6  H    0.152601  -0.146430  -0.055247   0.033594   0.007790   1.235602
 Mulliken atomic charges:
              1
     1  C    0.849325
     2  N   -0.064094
     3  O   -0.508728
     4  H   -0.027233
     5  H   -0.021361
     6  H   -0.227909
 Sum of Mulliken atomic charges =   0.00000
 Mulliken charges with hydrogens summed into heavy atoms:
              1
     1  C    0.621416
     2  N   -0.112687
     3  O   -0.508728
 Sum of Mulliken charges with hydrogens summed into heavy atoms =   0.00000
 Electronic spatial extent (au):  <R**2>=            144.7937
 Charge=              0.0000 electrons
 Dipole moment (field-independent basis, Debye):
    X=              1.8507    Y=              1.0723    Z=              1.1076  Tot=              2.4087
 Quadrupole moment (field-independent basis, Debye-Ang):
   XX=            -20.9697   YY=            -15.2895   ZZ=            -18.4894
   XY=             -2.4482   XZ=             -4.3504   YZ=             -1.0352
 Traceless Quadrupole moment (field-independent basis, Debye-Ang):
   XX=             -2.7202   YY=              2.9600   ZZ=             -0.2398
   XY=             -2.4482   XZ=             -4.3504   YZ=             -1.0352
 Octapole moment (field-independent basis, Debye-Ang**2):
  XXX=             -2.6052  YYY=             -1.0163  ZZZ=              3.3306  XYY=             -0.8478
  XXY=             -3.7035  XXZ=             -2.0848  XZZ=             -0.7833  YZZ=             -0.7821
  YYZ=              3.2762  XYZ=             -1.7863
 Hexadecapole moment (field-independent basis, Debye-Ang**3):
 XXXX=           -117.4763 YYYY=            -30.3103 ZZZZ=            -38.8452 XXXY=             -1.6887
 XXXZ=            -23.0885 YYYX=             -1.2196 YYYZ=             -4.6729 ZZZX=            -14.2299
 ZZZY=             -5.5273 XXYY=            -22.8604 XXZZ=            -25.3791 YYZZ=            -12.4225
 XXYZ=             -3.7938 YYXZ=             -3.3161 ZZXY=              0.5171
 N-N= 6.993948780735D+01 E-N=-5.377667492249D+02  KE= 1.685255615961D+02
 1\1\GINC-CLODOMIRA\FOpt\RTD-CAM-B3LYP-FC\Aug-CC-pVDZ\C1H3N1O1\DIEGOA\2
 8-Oct-2019\0\\# cam-b3lyp/aug-cc-pvdz opt(maxcycles=100) nosymm td(roo
 t=1,nstates=20) SCRF=PCM int(grid=ultrafine)\\Title\\0,1\C,-0.18232606
 06,0.442824518,0.2811172656\N,1.123237296,-0.0966434052,0.1197176226\O
 ,-0.8751655222,-0.184475453,-0.6247743379\H,1.2700012706,-1.0483337812
 ,0.4460796603\H,1.6427989128,0.1126026639,-0.7364955827\H,-0.298775896
 5,1.5031104575,0.5145723722\\Version=EM64L-G09RevA.01\HF=-169.7737428\
 RMSD=8.059e-09\RMSF=1.429e-04\Dipole=1.6938721,0.1282833,0.2892036\PG=
 C01 [X(C1H3N1O1)]\\@


 NATURE GIVES TO EVERY TIME AND SEASON SOME BEAUTY OF ITS OWN.

                                                    --DICKENS
 Job cpu time:  0 days  3 hours 19 minutes 12.9 seconds.
 File lengths (MBytes):  RWF=     60 Int=      0 D2E=      0 Chk=      9 Scr=      1
 Normal termination of Gaussian 09 at Mon Oct 28 17:14:03 2019.
