 Entering Gaussian System, Link 0=g09
 Input=td4-opt.com
 Output=td4-opt.log
 Initial command:
 /home/diegoa/progs/g09/l1.exe /home/diegoa/g09scratch/Gau-12937.inp -scrdir=/home/diegoa/g09scratch/
 Default is to use a total of   4 processors:
                                4 via shared-memory
                                1 via Linda
 Entering Link 1 = /home/diegoa/progs/g09/l1.exe PID=     12943.
  
 Copyright (c) 1988,1990,1992,1993,1995,1998,2003,2009, Gaussian, Inc.
                  All Rights Reserved.
  
 This is part of the Gaussian(R) 09 program.  It is based on
 the Gaussian(R) 03 system (copyright 2003, Gaussian, Inc.),
 the Gaussian(R) 98 system (copyright 1998, Gaussian, Inc.),
 the Gaussian(R) 94 system (copyright 1995, Gaussian, Inc.),
 the Gaussian 92(TM) system (copyright 1992, Gaussian, Inc.),
 the Gaussian 90(TM) system (copyright 1990, Gaussian, Inc.),
 the Gaussian 88(TM) system (copyright 1988, Gaussian, Inc.),
 the Gaussian 86(TM) system (copyright 1986, Carnegie Mellon
 University), and the Gaussian 82(TM) system (copyright 1983,
 Carnegie Mellon University). Gaussian is a federally registered
 trademark of Gaussian, Inc.
  
 This software contains proprietary and confidential information,
 including trade secrets, belonging to Gaussian, Inc.
  
 This software is provided under written license and may be
 used, copied, transmitted, or stored only in accord with that
 written license.
  
 The following legend is applicable only to US Government
 contracts under FAR:
  
                    RESTRICTED RIGHTS LEGEND
  
 Use, reproduction and disclosure by the US Government is
 subject to restrictions as set forth in subparagraphs (a)
 and (c) of the Commercial Computer Software - Restricted
 Rights clause in FAR 52.227-19.
  
 Gaussian, Inc.
 340 Quinnipiac St., Bldg. 40, Wallingford CT 06492
  
  
 ---------------------------------------------------------------
 Warning -- This program may not be used in any manner that
 competes with the business of Gaussian, Inc. or will provide
 assistance to any competitor of Gaussian, Inc.  The licensee
 of this program is prohibited from giving any competitor of
 Gaussian, Inc. access to this program.  By using this program,
 the user acknowledges that Gaussian, Inc. is engaged in the
 business of creating and licensing software in the field of
 computational chemistry and represents and warrants to the
 licensee that it is not a competitor of Gaussian, Inc. and that
 it will not use this program in any manner prohibited above.
 ---------------------------------------------------------------
  

 Cite this work as:
 Gaussian 09, Revision A.01,
 M. J. Frisch, G. W. Trucks, H. B. Schlegel, G. E. Scuseria, 
 M. A. Robb, J. R. Cheeseman, G. Scalmani, V. Barone, B. Mennucci, 
 G. A. Petersson, H. Nakatsuji, M. Caricato, X. Li, H. P. Hratchian, 
 A. F. Izmaylov, J. Bloino, G. Zheng, J. L. Sonnenberg, M. Hada, 
 M. Ehara, K. Toyota, R. Fukuda, J. Hasegawa, M. Ishida, T. Nakajima, 
 Y. Honda, O. Kitao, H. Nakai, T. Vreven, J. A. Montgomery, Jr., 
 J. E. Peralta, F. Ogliaro, M. Bearpark, J. J. Heyd, E. Brothers, 
 K. N. Kudin, V. N. Staroverov, R. Kobayashi, J. Normand, 
 K. Raghavachari, A. Rendell, J. C. Burant, S. S. Iyengar, J. Tomasi, 
 M. Cossi, N. Rega, J. M. Millam, M. Klene, J. E. Knox, J. B. Cross, 
 V. Bakken, C. Adamo, J. Jaramillo, R. Gomperts, R. E. Stratmann, 
 O. Yazyev, A. J. Austin, R. Cammi, C. Pomelli, J. W. Ochterski, 
 R. L. Martin, K. Morokuma, V. G. Zakrzewski, G. A. Voth, 
 P. Salvador, J. J. Dannenberg, S. Dapprich, A. D. Daniels, 
 O. Farkas, J. B. Foresman, J. V. Ortiz, J. Cioslowski, 
 and D. J. Fox, Gaussian, Inc., Wallingford CT, 2009.
 
 ******************************************
 Gaussian 09:  EM64L-G09RevA.01  8-May-2009
                28-Oct-2019 
 ******************************************
 %chk=td4-opt.chk
 %NProcShared=4
 Will use up to    4 processors via shared memory.
 Default route:  MP2=Direct MaxDisk=1000GB DenFit
 ----------------------------------------------------------------------
 # cam-b3lyp/aug-cc-pvdz opt(maxCycle=100) nosymm td(root=2,nstates=20)
  SCRF=PCM int(grid=ultrafine)
 ----------------------------------------------------------------------
 1/6=100,14=-1,18=20,19=15,26=3,38=1/1,3;
 2/9=110,12=2,15=1,17=6,18=5,40=1/2;
 3/5=16,7=10,11=2,16=1,25=1,30=1,70=2201,71=1,72=1,74=-40,75=-5,82=47/1,2,8,3;
 4//1;
 5/5=2,38=5/2;
 8/6=1,10=1,107=2,108=20/1;
 9/8=2,15=2,41=20,42=1/14;
 10/5=4,31=1/2;
 6/7=2,8=2,9=2,10=2/1;
 7/12=6,13=5,14=2,30=1/1,2,3,16;
 1/6=100,14=-1,18=20,19=15/3(2);
 2/9=110,15=1/2;
 99//99;
 2/9=110,15=1/2;
 3/5=16,7=10,11=2,16=1,25=1,30=1,70=2205,71=1,74=-40,75=-5,82=47/1,2,8,3;
 4/5=5,16=3/1;
 5/5=2,38=5/2;
 8/6=1,10=1,107=2,108=20/1;
 9/8=2,15=2,41=20,42=1,49=4/14;
 10/5=4,31=1/2;
 7/12=6,13=5,14=2,30=1/1,2,3,16;
 1/6=100,14=-1,18=20,19=15/3(-8);
 2/9=110,15=1/2;
 6/7=2,8=2,9=2,10=2/1;
 99//99;
 -----
 Title
 -----
 Symbolic Z-matrix:
 Charge =  0 Multiplicity = 1
 6                    -0.22053   0.37515   0.26297 
 7                     1.07611  -0.23204  -0.08066 
 8                    -1.18112  -0.12393  -0.41547 
 1                     1.33739  -1.08817   0.41403 
 1                     1.87368   0.306    -0.41483 
 1                    -0.20575   1.49207   0.23418 
 

 GradGradGradGradGradGradGradGradGradGradGradGradGradGradGradGradGradGrad
 Berny optimization.
 Initialization pass.
                           ----------------------------
                           !    Initial Parameters    !
                           ! (Angstroms and Degrees)  !
 --------------------------                            --------------------------
 ! Name  Definition              Value          Derivative Info.                !
 --------------------------------------------------------------------------------
 ! R1    R(1,2)                  1.4724         estimate D2E/DX2                !
 ! R2    R(1,3)                  1.2775         estimate D2E/DX2                !
 ! R3    R(1,6)                  1.1174         estimate D2E/DX2                !
 ! R4    R(2,4)                  1.0227         estimate D2E/DX2                !
 ! R5    R(2,5)                  1.0185         estimate D2E/DX2                !
 ! A1    A(2,1,3)              112.1549         estimate D2E/DX2                !
 ! A2    A(2,1,6)              113.2372         estimate D2E/DX2                !
 ! A3    A(3,1,6)              112.7528         estimate D2E/DX2                !
 ! A4    A(1,2,4)              117.2127         estimate D2E/DX2                !
 ! A5    A(1,2,5)              123.2533         estimate D2E/DX2                !
 ! A6    A(4,2,5)              113.6335         estimate D2E/DX2                !
 ! D1    D(3,1,2,4)            -86.4834         estimate D2E/DX2                !
 ! D2    D(3,1,2,5)            122.327          estimate D2E/DX2                !
 ! D3    D(6,1,2,4)            144.5194         estimate D2E/DX2                !
 ! D4    D(6,1,2,5)             -6.6701         estimate D2E/DX2                !
 --------------------------------------------------------------------------------
 Trust Radius=3.00D-01 FncErr=1.00D-07 GrdErr=1.00D-06
 Number of steps in this run= 100 maximum allowed number of steps= 100.
 GradGradGradGradGradGradGradGradGradGradGradGradGradGradGradGradGradGrad

                          Input orientation:                          
 ---------------------------------------------------------------------
 Center     Atomic      Atomic             Coordinates (Angstroms)
 Number     Number       Type             X           Y           Z
 ---------------------------------------------------------------------
      1          6           0       -0.220532    0.375150    0.262971
      2          7           0        1.076112   -0.232037   -0.080658
      3          8           0       -1.181122   -0.123931   -0.415466
      4          1           0        1.337387   -1.088173    0.414026
      5          1           0        1.873679    0.306002   -0.414834
      6          1           0       -0.205754    1.492074    0.234178
 ---------------------------------------------------------------------
                    Distance matrix (angstroms):
                    1          2          3          4          5
     1  C    0.000000
     2  N    1.472427   0.000000
     3  O    1.277533   2.284489   0.000000
     4  H    2.142719   1.022715   2.821473   0.000000
     5  H    2.202254   1.018466   3.084907   1.708316   0.000000
     6  H    1.117393   2.171373   1.996209   3.011861   2.480328
                    6
     6  H    0.000000
 Symmetry turned off by external request.
 Stoichiometry    CH3NO
 Framework group  C1[X(CH3NO)]
 Deg. of freedom    12
 Full point group                 C1      NOp   1
 Rotational constants (GHZ):     56.4852400     10.8063740      9.6251680
 Standard basis: Aug-CC-pVDZ (5D, 7F)
 Integral buffers will be    131072 words long.
 Raffenetti 2 integral format.
 Two-electron integral symmetry is turned off.
    96 basis functions,   162 primitive gaussians,   102 cartesian basis functions
    12 alpha electrons       12 beta electrons
       nuclear repulsion energy        68.3709564896 Hartrees.
 NAtoms=    6 NActive=    6 NUniq=    6 SFac= 7.50D-01 NAtFMM=   80 NAOKFM=F Big=F
 Standard density basis: Auto (5D, 7F)
   327 Density fitting functions
 ------------------------------------------------------------------------------
 Polarizable Continuum Model (PCM)
 =================================
 Model                : PCM.
 Atomic radii         : UFF (Universal Force Field).
 Polarization charges : Total charges.
 Charge compensation  : None.
 Solution method      : Matrix inversion.
 Cavity type          : Scaled VdW (van der Waals Surface) (Alpha=1.100).
 Cavity algorithm     : GePol (No added spheres)
                        Default sphere list used, NSphG=    6.
                        Lebedev-Laikov grids with approx.  5.0 points / Ang**2.
                        Smoothing algorithm: Karplus/York (Gamma=1.0000).
                        Polarization charges: spherical gaussians, with
                                              point-specific exponents (IZeta= 3).
                        Self-potential: point-specific (ISelfS= 7).
                        Self-field    : sphere-specific E.n sum rule (ISelfD= 2).
 1st derivatives      : Analytical E(r).r(x)/FMM algorithm (CHGder, D1EAlg=3).
                        Cavity 1st derivative terms included.
 Solvent              : Water, Eps=  78.355300 Eps(inf)=   1.777849
 ------------------------------------------------------------------------------
 Spheres list:
 ISph  on   Nord    Re0     Alpha      Xe            Ye            Ze
    1   C      1    1.926   1.100     -0.220532      0.375150      0.262971
    2   N      2    1.830   1.100      1.076112     -0.232037     -0.080658
    3   O      3    1.750   1.100     -1.181122     -0.123931     -0.415466
    4   H      4    1.443   1.100      1.337387     -1.088173      0.414026
    5   H      5    1.443   1.100      1.873679      0.306002     -0.414834
    6   H      6    1.443   1.100     -0.205754      1.492074      0.234178
 ------------------------------------------------------------------------------
 One-electron integrals computed using PRISM.
 NBasis=    96 RedAO= T  NBF=    96
 NBsUse=    96 1.00D-06 NBFU=    96
 Harris functional with IExCor=20419 diagonalized for initial guess.
 ExpMin= 2.97D-02 ExpMax= 1.17D+04 ExpMxC= 4.01D+02 IAcc=3 IRadAn=         5 AccDes= 0.00D+00
 HarFok:  IExCor=20419 AccDes= 0.00D+00 IRadAn=         5 IDoV= 1
 ScaDFX=  1.000000  1.000000  1.000000  1.000000
 FoFCou: FMM=F IPFlag=           0 FMFlag=      100000 FMFlg1=           0
         NFxFlg=           0 DoJE=T BraDBF=F KetDBF=T FulRan=T
         Omega=  0.000000  0.000000  1.000000  0.000000  0.000000 ICntrl=     500 IOpCl=  0
         NMat0=    1 NMatS0=    1 NMatT0=    0 NMatD0=    1 NMtDS0=    0 NMtDT0=    0
         I1Cent=           4 NGrid=           0.
 Symmetry not used in FoFCou.
 Requested convergence on RMS density matrix=1.00D-08 within 128 cycles.
 Requested convergence on MAX density matrix=1.00D-06.
 Requested convergence on             energy=1.00D-06.
 No special actions if energy rises.
 FoFJK:  IHMeth= 1 ICntrl=     0 DoSepK=T KAlg= 1 I1Cent= 0 FoldK=F
 FoFJK:  IHMeth= 1 ICntrl=     0 DoSepK=T KAlg= 1 I1Cent= 0 FoldK=F
 FoFJK:  IHMeth= 1 ICntrl=     0 DoSepK=T KAlg= 1 I1Cent= 0 FoldK=F
 FoFJK:  IHMeth= 1 ICntrl=     0 DoSepK=T KAlg= 1 I1Cent= 0 FoldK=F
 FoFJK:  IHMeth= 1 ICntrl=     0 DoSepK=T KAlg= 1 I1Cent= 0 FoldK=F
 FoFJK:  IHMeth= 1 ICntrl=     0 DoSepK=T KAlg= 1 I1Cent= 0 FoldK=F
 FoFJK:  IHMeth= 1 ICntrl=     0 DoSepK=T KAlg= 1 I1Cent= 0 FoldK=F
 FoFJK:  IHMeth= 1 ICntrl=     0 DoSepK=T KAlg= 1 I1Cent= 0 FoldK=F
 FoFJK:  IHMeth= 1 ICntrl=     0 DoSepK=T KAlg= 1 I1Cent= 0 FoldK=F
 FoFJK:  IHMeth= 1 ICntrl=     0 DoSepK=T KAlg= 1 I1Cent= 0 FoldK=F
 FoFJK:  IHMeth= 1 ICntrl=     0 DoSepK=T KAlg= 1 I1Cent= 0 FoldK=F
 FoFJK:  IHMeth= 1 ICntrl=     0 DoSepK=T KAlg= 1 I1Cent= 0 FoldK=F
 FoFJK:  IHMeth= 1 ICntrl=     0 DoSepK=T KAlg= 1 I1Cent= 0 FoldK=F
 FoFJK:  IHMeth= 1 ICntrl=     0 DoSepK=T KAlg= 1 I1Cent= 0 FoldK=F
 Error on total polarization charges =  0.01118
 SCF Done:  E(RCAM-B3LYP) =  -169.791392855     A.U. after   14 cycles
             Convg  =    0.2203D-08             -V/T =  2.0082
 ExpMin= 2.97D-02 ExpMax= 1.17D+04 ExpMxC= 4.01D+02 IAcc=3 IRadAn=         5 AccDes= 0.00D+00
 HarFok:  IExCor=  205 AccDes= 0.00D+00 IRadAn=         5 IDoV=-2
 ScaDFX=  1.000000  1.000000  1.000000  1.000000
 Range of M.O.s used for correlation:     4    96
 NBasis=    96 NAE=    12 NBE=    12 NFC=     3 NFV=     0
 NROrb=     93 NOA=     9 NOB=     9 NVA=    84 NVB=    84
 NEqPCM:  Using equilibrium solvation (IEInf=0, Eps=  78.3553, EpsInf=   1.7778)
    80 initial guesses have been made.
 Convergence on wavefunction:    0.000001000000000
 Iteration     1 Dimension    80 NMult    80
 CISAX will form    80 AO SS matrices at one time.
 FoFJK:  IHMeth= 1 ICntrl=     0 DoSepK=T KAlg= 1 I1Cent= 0 FoldK=F
 FoFJK:  IHMeth= 1 ICntrl=     0 DoSepK=T KAlg= 1 I1Cent= 0 FoldK=F
 New state      1 was old state      2
 New state      2 was old state      1
 New state      5 was old state      6
 New state      6 was old state      5
 New state     10 was old state     19
 New state     11 was old state     10
 New state     12 was old state     11
 New state     13 was old state     12
 New state     14 was old state     13
 New state     15 was old state     14
 New state     16 was old state     15
 New state     17 was old state     16
 New state     19 was old state     17
 No map to state     20
 Iteration     2 Dimension   120 NMult   120
 FoFJK:  IHMeth= 1 ICntrl=     0 DoSepK=T KAlg= 1 I1Cent= 0 FoldK=F
 FoFJK:  IHMeth= 1 ICntrl=     0 DoSepK=T KAlg= 1 I1Cent= 0 FoldK=F
 New state      9 was old state     10
 New state     10 was old state      9
 New state     11 was old state     12
 New state     12 was old state     11
 Iteration     3 Dimension   160 NMult   160
 FoFJK:  IHMeth= 1 ICntrl=     0 DoSepK=T KAlg= 1 I1Cent= 0 FoldK=F
 FoFJK:  IHMeth= 1 ICntrl=     0 DoSepK=T KAlg= 1 I1Cent= 0 FoldK=F
 Iteration     4 Dimension   200 NMult   200
 FoFJK:  IHMeth= 1 ICntrl=     0 DoSepK=T KAlg= 1 I1Cent= 0 FoldK=F
 FoFJK:  IHMeth= 1 ICntrl=     0 DoSepK=T KAlg= 1 I1Cent= 0 FoldK=F
 Iteration     5 Dimension   240 NMult   240
 FoFJK:  IHMeth= 1 ICntrl=     0 DoSepK=T KAlg= 1 I1Cent= 0 FoldK=F
 FoFJK:  IHMeth= 1 ICntrl=     0 DoSepK=T KAlg= 1 I1Cent= 0 FoldK=F
 Iteration     6 Dimension   280 NMult   280
 FoFJK:  IHMeth= 1 ICntrl=     0 DoSepK=T KAlg= 1 I1Cent= 0 FoldK=F
 FoFJK:  IHMeth= 1 ICntrl=     0 DoSepK=T KAlg= 1 I1Cent= 0 FoldK=F
 Iteration     7 Dimension   310 NMult   310
 FoFJK:  IHMeth= 1 ICntrl=     0 DoSepK=T KAlg= 1 I1Cent= 0 FoldK=F
 FoFJK:  IHMeth= 1 ICntrl=     0 DoSepK=T KAlg= 1 I1Cent= 0 FoldK=F
 ***********************************************************************
 Excited states from <AA,BB:AA,BB> singles matrix:
 ***********************************************************************
 
 Ground to excited state transition electric dipole moments (Au):
       state          X           Y           Z        Dip. S.      Osc.
         1        -0.2016     -0.0458      0.0630      0.0467      0.0037
         2         0.7748     -0.2486     -0.0309      0.6631      0.0657
         3         0.4463      0.1457      0.4221      0.3986      0.0622
         4        -0.3789      0.1804      0.1214      0.1909      0.0337
         5         0.2582      0.0110      0.0296      0.0676      0.0121
         6         0.1688     -0.0496     -0.0332      0.0320      0.0059
         7        -0.2351     -0.5072     -0.5751      0.6432      0.1210
         8        -0.1054     -0.2856     -0.1727      0.1225      0.0238
         9         0.2675     -0.1662      0.2067      0.1419      0.0280
        10        -0.1943      0.4830     -0.0472      0.2732      0.0543
        11         0.8351      0.2368      0.2447      0.8133      0.1667
        12        -0.1045     -0.2725     -0.2337      0.1397      0.0292
        13        -0.3589      0.0831      0.3765      0.2774      0.0595
        14         0.1919      0.2245      0.0577      0.0906      0.0199
        15        -0.1082      0.0260     -0.3088      0.1078      0.0246
        16         0.1965     -0.1478     -0.1803      0.0930      0.0215
        17        -0.3765      0.1225      0.0940      0.1656      0.0385
        18         0.1313     -0.0597     -0.0352      0.0221      0.0052
        19         0.1872     -0.1666     -0.1294      0.0796      0.0193
        20        -0.0028      0.1119      0.0405      0.0142      0.0035
 Ground to excited state transition velocity dipole moments (Au):
       state          X           Y           Z        Dip. S.      Osc.
         1         0.0238      0.0057     -0.0098      0.0007      0.0038
         2        -0.1133      0.0386      0.0049      0.0144      0.0644
         3        -0.1044     -0.0334     -0.0975      0.0215      0.0613
         4         0.0996     -0.0466     -0.0325      0.0132      0.0331
         5        -0.0691     -0.0010     -0.0069      0.0048      0.0120
         6        -0.0451      0.0130      0.0081      0.0023      0.0054
         7         0.0648      0.1418      0.1573      0.0491      0.1159
         8         0.0285      0.0813      0.0500      0.0099      0.0227
         9        -0.0752      0.0483     -0.0589      0.0115      0.0258
        10         0.0575     -0.1414      0.0169      0.0236      0.0527
        11        -0.2574     -0.0714     -0.0758      0.0771      0.1672
        12         0.0342      0.0814      0.0735      0.0132      0.0281
        13         0.1105     -0.0272     -0.1225      0.0280      0.0580
        14        -0.0614     -0.0740     -0.0198      0.0096      0.0195
        15         0.0364     -0.0096      0.1068      0.0128      0.0250
        16        -0.0641      0.0488      0.0619      0.0103      0.0199
        17         0.1318     -0.0376     -0.0240      0.0194      0.0370
        18        -0.0402      0.0210      0.0166      0.0023      0.0044
        19        -0.0634      0.0623      0.0516      0.0106      0.0194
        20         0.0032     -0.0430     -0.0182      0.0022      0.0040
 Ground to excited state transition magnetic dipole moments (Au):
       state          X           Y           Z
         1        -0.6876     -0.3252     -0.4663
         2        -0.6966     -0.1813     -0.1362
         3        -0.0343      0.3699     -0.1812
         4        -0.1248     -0.1362      0.2695
         5         0.1588      0.1123     -0.0488
         6        -0.0359      0.2055      0.1328
         7         0.2112     -0.4173     -0.1557
         8        -0.5637      0.8526      0.3446
         9         0.0358     -0.0474      0.1222
        10        -0.4017      0.4476      0.1678
        11         0.3677     -0.7819      0.3798
        12         0.1318      0.0779     -0.2355
        13         0.1051      0.1334     -0.1919
        14        -0.0280      0.2174      0.0697
        15         0.5269      0.5890      0.1538
        16         0.0145      0.3017      0.0808
        17         0.0312      0.2678     -0.2403
        18         0.0323      0.3033     -0.1477
        19        -0.0373     -0.1040      0.2185
        20        -0.0233     -0.2961      0.2680
 <0|del|b> * <b|rxdel|0> + <0|del|b> * <b|delr+rdel|0>
 Rotatory Strengths (R) in cgs (10**-40 erg-esu-cm/Gauss)
       state          XX          YY          ZZ    R(velocity)
         1         8.9601    -37.1818    -51.7472    -26.6563
 Total R(velocity) tensor for State=          1
                 1             2             3 
      1   0.896007D+01  0.226050D+02  0.347683D+02
      2   0.101025D+02 -0.371818D+02  0.294232D+01
      3  -0.184343D+02 -0.123123D+02 -0.517472D+02
         2       -26.4600    202.5884    162.7818    112.9701
 Total R(velocity) tensor for State=          2
                 1             2             3 
      1  -0.264600D+02 -0.752168D+02 -0.191435D+02
      2   0.705621D+02  0.202588D+03  0.354012D+02
      3   0.134051D+02  0.185022D+02  0.162782D+03
         3         5.3041      8.2880     13.2271      8.9397
 Total R(velocity) tensor for State=          3
                 1             2             3 
      1   0.530407D+01  0.703567D+02 -0.298123D+02
      2  -0.139921D+02  0.828800D+01  0.121363D+02
      3  -0.146758D+02  0.724187D+01  0.132271D+02
         4       -17.9216     -3.3539    -18.3288    -13.2014
 Total R(velocity) tensor for State=          4
                 1             2             3 
      1  -0.179216D+02 -0.833700D+01 -0.430395D+02
      2  -0.943282D+01 -0.335387D+01 -0.241380D+02
      3  -0.988245D+01 -0.836176D+01 -0.183288D+02
         5         0.0609    -17.1145    -11.2693     -9.4410
 Total R(velocity) tensor for State=          5
                 1             2             3 
      1   0.609042D-01  0.104224D+02 -0.204793D+01
      2   0.253422D+01 -0.171145D+02 -0.228880D+02
      3   0.944293D+00  0.134468D+02 -0.112693D+02
         6         7.3789      0.7820      5.4720      4.5443
 Total R(velocity) tensor for State=          6
                 1             2             3 
      1   0.737893D+01  0.124277D+02  0.212501D+02
      2   0.313447D+01  0.782049D+00  0.162416D+02
      3   0.244356D+01  0.509097D+01  0.547202D+01
         7       -97.2980     -0.7673    -77.3035    -58.4563
 Total R(velocity) tensor for State=          7
                 1             2             3 
      1  -0.972980D+02  0.129554D+03 -0.766928D+02
      2  -0.296753D+02 -0.767285D+00  0.129207D+02
      3  -0.483304D+02  0.107846D+03 -0.773035D+02
         8       127.1377     -8.6088     52.3495     56.9595
 Total R(velocity) tensor for State=          8
                 1             2             3 
      1   0.127138D+03 -0.320775D+02 -0.202816D+02
      2   0.644722D+02 -0.860882D+01 -0.227413D+02
      3   0.434881D+02 -0.474203D+02  0.523495D+02
         9        -5.9533    -14.2866     -8.8571     -9.6990
 Total R(velocity) tensor for State=          9
                 1             2             3 
      1  -0.595329D+01 -0.183815D+02 -0.747273D+01
      2   0.467761D+01 -0.142866D+02 -0.176842D+02
      3   0.202715D+02  0.207543D+02 -0.885709D+01
        10       -89.3513    -27.5653    -81.1133    -66.0100
 Total R(velocity) tensor for State=         10
                 1             2             3 
      1  -0.893513D+02 -0.343198D+02  0.165944D+02
      2  -0.762707D+02 -0.275653D+02  0.286099D+02
      3  -0.147788D+02 -0.157212D+02 -0.811133D+02
        11        42.8835   -147.5671    -50.7326    -51.8054
 Total R(velocity) tensor for State=         11
                 1             2             3 
      1   0.428835D+02 -0.348258D+03  0.182642D+03
      2   0.429040D+02 -0.147567D+03 -0.660925D+01
      3   0.378928D+02 -0.827045D+02 -0.507326D+02
        12       -31.3163      1.6930     15.0268     -4.8655
 Total R(velocity) tensor for State=         12
                 1             2             3 
      1  -0.313163D+02  0.240284D+01  0.118972D+02
      2  -0.956962D+00  0.169304D+01 -0.143184D+01
      3  -0.523588D+01 -0.113594D+02  0.150268D+02
        13        16.2476     44.0978      8.9353     23.0936
 Total R(velocity) tensor for State=         13
                 1             2             3 
      1   0.162476D+02 -0.238995D+02  0.199656D+02
      2   0.824564D+01  0.440978D+02 -0.236336D+01
      3   0.159538D+02  0.245400D+02  0.893535D+01
        14       -25.1501     13.0736    -21.6478    -11.2414
 Total R(velocity) tensor for State=         14
                 1             2             3 
      1  -0.251501D+02  0.190318D+02  0.686086D+01
      2  -0.105670D+02  0.130736D+02 -0.161158D+02
      3  -0.945467D+00  0.656963D+01 -0.216478D+02
        15         8.3720     42.2733     11.1602     20.6018
 Total R(velocity) tensor for State=         15
                 1             2             3 
      1   0.837200D+01 -0.290806D+02 -0.547313D+01
      2  -0.192257D+02  0.422733D+02  0.103599D+02
      3  -0.423365D+02 -0.362109D+02  0.111602D+02
        16        19.3491      7.7013     11.2960     12.7822
 Total R(velocity) tensor for State=         16
                 1             2             3 
      1   0.193491D+02  0.368398D+02 -0.899199D+01
      2   0.166901D+02  0.770134D+01  0.112083D+02
      3   0.328550D+01 -0.100234D+02  0.112960D+02
        17        -1.2859     19.2840    -18.4072     -0.1364
 Total R(velocity) tensor for State=         17
                 1             2             3 
      1  -0.128585D+01 -0.301399D+02  0.402187D+02
      2  -0.560333D+00  0.192840D+02 -0.333324D+02
      3   0.630071D+01  0.338018D+02 -0.184072D+02
        18         9.7074     -4.8810      0.3610      1.7291
 Total R(velocity) tensor for State=         18
                 1             2             3 
      1   0.970737D+01  0.146692D+02  0.492546D+01
      2  -0.759502D+00 -0.488101D+01  0.433157D+01
      3  -0.380245D+01 -0.755875D+01  0.360987D+00
        19         2.3478     21.8292    -10.2400      4.6457
 Total R(velocity) tensor for State=         19
                 1             2             3 
      1   0.234780D+01 -0.497731D+01  0.889405D+01
      2   0.108184D+02  0.218292D+02 -0.130649D+02
      3   0.161257D+02  0.248901D+02 -0.102400D+02
        20         8.1175     -2.5176      9.4023      5.0008
 Total R(velocity) tensor for State=         20
                 1             2             3 
      1   0.811751D+01  0.933351D+00 -0.794127D+00
      2  -0.292191D+01 -0.251758D+01  0.543981D+01
      3  -0.811787D+01 -0.457714D+01  0.940233D+01
 1/2[<0|r|b>*<b|rxdel|0> + (<0|rxdel|b>*<b|r|0>)*]
 Rotatory Strengths (R) in cgs (10**-40 erg-esu-cm/Gauss)
       state          XX          YY          ZZ     R(length)     R(au)
         1       -98.0064    -10.5413     20.7757    -29.2573     -0.0621
         2       381.6902    -31.8743     -2.9768    115.6130      0.2452
         3        10.8107    -38.1133     54.0967      8.9314      0.0189
         4       -33.4532     17.3695    -23.1231    -13.0690     -0.0277
         5       -28.9866     -0.8748      1.0208     -9.6135     -0.0204
         6         4.2812      7.2153      3.1157      4.8707      0.0103
         7        35.1043   -149.6855    -63.3330    -59.3047     -0.1258
         8       -42.0333    172.2361     42.0840     57.4290      0.1218
         9        -6.7657     -5.5699    -17.8613    -10.0656     -0.0214
        10       -55.2040   -152.8813      5.5968    -67.4962     -0.1432
        11      -217.1575    130.9601    -65.7276    -50.6417     -0.1074
        12         9.7346     15.0019    -38.9165     -4.7267     -0.0100
        13        26.6790     -7.8345     51.1046     23.3164      0.0495
        14         3.8055    -34.5142     -2.8446    -11.1844     -0.0237
        15        40.3102    -10.8144     33.5787     21.0248      0.0446
        16        -2.0136     31.5269     10.3037     13.2723      0.0282
        17         8.3046    -23.2076     15.9724      0.3565      0.0008
        18        -2.9993     12.8131     -3.6799      2.0446      0.0043
        19         4.9354    -12.2568     19.9931      4.2239      0.0090
        20        -0.0454     23.4313     -7.6766      5.2364      0.0111
  1/2[<0|del|b>*<b|r|0> + (<0|r|b>*<b|del|0>)*] (Au)
       state          X           Y           Z        Dip. S.   Osc.(frdel)
         1        -0.0048     -0.0003     -0.0006      0.0057      0.0038
         2        -0.0878     -0.0096     -0.0002      0.0976      0.0650
         3        -0.0466     -0.0049     -0.0411      0.0926      0.0617
         4        -0.0378     -0.0084     -0.0039      0.0501      0.0334
         5        -0.0178      0.0000     -0.0002      0.0181      0.0120
         6        -0.0076     -0.0006     -0.0003      0.0085      0.0057
         7        -0.0152     -0.0719     -0.0905      0.1776      0.1184
         8        -0.0030     -0.0232     -0.0086      0.0349      0.0232
         9        -0.0201     -0.0080     -0.0122      0.0403      0.0269
        10        -0.0112     -0.0683     -0.0008      0.0802      0.0535
        11        -0.2149     -0.0169     -0.0185      0.2504      0.1669
        12        -0.0036     -0.0222     -0.0172      0.0429      0.0286
        13        -0.0397     -0.0023     -0.0461      0.0880      0.0587
        14        -0.0118     -0.0166     -0.0011      0.0296      0.0197
        15        -0.0039     -0.0002     -0.0330      0.0372      0.0248
        16        -0.0126     -0.0072     -0.0112      0.0310      0.0207
        17        -0.0496     -0.0046     -0.0023      0.0565      0.0376
        18        -0.0053     -0.0013     -0.0006      0.0071      0.0047
        19        -0.0119     -0.0104     -0.0067      0.0289      0.0193
        20         0.0000     -0.0048     -0.0007      0.0056      0.0037
 Ground to excited state transition densities written to RWF  633

 Excitation energies and oscillator strengths:
 
 Excited state symmetry could not be determined.
 Excited State   1:      Singlet-?Sym    3.2729 eV  378.81 nm  f=0.0037  <S**2>=0.000
      11 -> 13         0.52709
      12 -> 13        -0.46385
 
 Excited state symmetry could not be determined.
 Excited State   2:      Singlet-?Sym    4.0472 eV  306.35 nm  f=0.0657  <S**2>=0.000
      11 -> 13         0.46041
      12 -> 13         0.52546
 This state for optimization and/or second-order correction.
 Copying the excited state density for this state as the 1-particle RhoCI density.
 
 Excited state symmetry could not be determined.
 Excited State   3:      Singlet-?Sym    6.3658 eV  194.77 nm  f=0.0622  <S**2>=0.000
      12 -> 14         0.64924
      12 -> 15         0.14887
      12 -> 20        -0.14845
 
 Excited state symmetry could not be determined.
 Excited State   4:      Singlet-?Sym    7.2101 eV  171.96 nm  f=0.0337  <S**2>=0.000
      11 -> 14         0.34068
      11 -> 16         0.10399
      11 -> 17        -0.12619
      12 -> 14        -0.15004
      12 -> 15         0.52334
      12 -> 17         0.10054
      12 -> 21         0.13126
 
 Excited state symmetry could not be determined.
 Excited State   5:      Singlet-?Sym    7.2981 eV  169.89 nm  f=0.0121  <S**2>=0.000
      11 -> 14        -0.40183
      11 -> 15         0.17091
      11 -> 17         0.13656
      12 -> 15         0.27517
      12 -> 16         0.41036
      12 -> 24        -0.11217
 
 Excited state symmetry could not be determined.
 Excited State   6:      Singlet-?Sym    7.5654 eV  163.88 nm  f=0.0059  <S**2>=0.000
      11 -> 14         0.28273
      12 -> 15        -0.28091
      12 -> 16         0.52230
      12 -> 24        -0.11138
 
 Excited state symmetry could not be determined.
 Excited State   7:      Singlet-?Sym    7.6801 eV  161.43 nm  f=0.1210  <S**2>=0.000
       9 -> 13        -0.24284
      10 -> 13         0.55125
      11 -> 14        -0.11420
      11 -> 15        -0.27155
 
 Excited state symmetry could not be determined.
 Excited State   8:      Singlet-?Sym    7.9379 eV  156.19 nm  f=0.0238  <S**2>=0.000
       9 -> 13         0.45863
      11 -> 15        -0.40829
      12 -> 17        -0.28081
 
 Excited state symmetry could not be determined.
 Excited State   9:      Singlet-?Sym    8.0544 eV  153.93 nm  f=0.0280  <S**2>=0.000
      10 -> 13        -0.17760
      11 -> 14        -0.19130
      11 -> 15        -0.28165
      12 -> 17         0.55892
 
 Excited state symmetry could not be determined.
 Excited State  10:      Singlet-?Sym    8.1163 eV  152.76 nm  f=0.0543  <S**2>=0.000
       9 -> 13         0.30309
      10 -> 13         0.14876
      11 -> 14        -0.11909
      11 -> 15         0.20505
      11 -> 16         0.42485
      11 -> 17        -0.26760
      11 -> 18        -0.12714
      12 -> 17         0.14621
 
 Excited state symmetry could not be determined.
 Excited State  11:      Singlet-?Sym    8.3665 eV  148.19 nm  f=0.1667  <S**2>=0.000
       9 -> 13        -0.33713
      10 -> 13        -0.30466
      11 -> 14        -0.15251
      11 -> 15        -0.20656
      11 -> 16         0.36143
      11 -> 17        -0.11920
      12 -> 17        -0.20475
 
 Excited state symmetry could not be determined.
 Excited State  12:      Singlet-?Sym    8.5157 eV  145.59 nm  f=0.0292  <S**2>=0.000
      11 -> 14         0.10949
      11 -> 16         0.27639
      11 -> 17         0.59195
      11 -> 18        -0.14385
 
 Excited state symmetry could not be determined.
 Excited State  13:      Singlet-?Sym    8.7482 eV  141.73 nm  f=0.0595  <S**2>=0.000
      11 -> 16        -0.11139
      12 -> 18         0.63671
      12 -> 19         0.12130
 
 Excited state symmetry could not be determined.
 Excited State  14:      Singlet-?Sym    8.9864 eV  137.97 nm  f=0.0199  <S**2>=0.000
      12 -> 18        -0.13390
      12 -> 19         0.66233
 
 Excited state symmetry could not be determined.
 Excited State  15:      Singlet-?Sym    9.3184 eV  133.05 nm  f=0.0246  <S**2>=0.000
       7 -> 13         0.19784
       8 -> 13         0.62925
      11 -> 18        -0.15220
 
 Excited state symmetry could not be determined.
 Excited State  16:      Singlet-?Sym    9.4319 eV  131.45 nm  f=0.0215  <S**2>=0.000
       8 -> 13         0.17516
      11 -> 16         0.18219
      11 -> 18         0.56041
      12 -> 20        -0.21829
      12 -> 21         0.13038
 
 Excited state symmetry could not be determined.
 Excited State  17:      Singlet-?Sym    9.4807 eV  130.78 nm  f=0.0385  <S**2>=0.000
      11 -> 18         0.26035
      12 -> 14         0.11335
      12 -> 20         0.49709
      12 -> 21        -0.28187
      12 -> 22        -0.14404
      12 -> 23        -0.13865
 
 Excited state symmetry could not be determined.
 Excited State  18:      Singlet-?Sym    9.7114 eV  127.67 nm  f=0.0052  <S**2>=0.000
      11 -> 15        -0.11959
      11 -> 16        -0.10874
      11 -> 19         0.64723
 
 Excited state symmetry could not be determined.
 Excited State  19:      Singlet-?Sym    9.8873 eV  125.40 nm  f=0.0193  <S**2>=0.000
      12 -> 15         0.14013
      12 -> 21        -0.20655
      12 -> 22         0.60988
      12 -> 23         0.10752
 
 Excited state symmetry could not be determined.
 Excited State  20:      Singlet-?Sym    9.9781 eV  124.26 nm  f=0.0035  <S**2>=0.000
      12 -> 15        -0.12570
      12 -> 20         0.29870
      12 -> 21         0.49864
      12 -> 22         0.21551
      12 -> 23        -0.18439
 SavETr:  write IOETrn=   770 NScale= 10 NData=  16 NLR=1 LETran=     370.
 FoFJK:  IHMeth= 1 ICntrl=     0 DoSepK=T KAlg= 1 I1Cent= 0 FoldK=F
 FoFJK:  IHMeth= 1 ICntrl=     0 DoSepK=T KAlg= 1 I1Cent= 0 FoldK=F
          IDoAtm=111111
 NEqPCM:  Using equilibrium solvation (IEInf=0, Eps=  78.3553, EpsInf=   1.7778)
          Differentiating once with respect to electric field.
                with respect to dipole field.
          Differentiating once with respect to nuclear coordinates.
          There are     1 degrees of freedom in the 1st order CPHF.  IDoFFX=0.
 FoFJK:  IHMeth= 1 ICntrl=     0 DoSepK=T KAlg= 1 I1Cent= 0 FoldK=F
 LinEq1:  Iter=  0 NonCon=     1 RMS=3.40D-02 Max=6.11D-01
 AX will form     1 AO Fock derivatives at one time.
 FoFJK:  IHMeth= 1 ICntrl=     0 DoSepK=T KAlg= 1 I1Cent= 0 FoldK=F
 LinEq1:  Iter=  1 NonCon=     1 RMS=1.37D-02 Max=2.39D-01
 FoFJK:  IHMeth= 1 ICntrl=     0 DoSepK=T KAlg= 1 I1Cent= 0 FoldK=F
 LinEq1:  Iter=  2 NonCon=     1 RMS=7.93D-03 Max=1.27D-01
 FoFJK:  IHMeth= 1 ICntrl=     0 DoSepK=T KAlg= 1 I1Cent= 0 FoldK=F
 LinEq1:  Iter=  3 NonCon=     1 RMS=5.01D-03 Max=4.61D-02
 FoFJK:  IHMeth= 1 ICntrl=     0 DoSepK=T KAlg= 1 I1Cent= 0 FoldK=F
 LinEq1:  Iter=  4 NonCon=     1 RMS=2.93D-03 Max=3.43D-02
 FoFJK:  IHMeth= 1 ICntrl=     0 DoSepK=T KAlg= 1 I1Cent= 0 FoldK=F
 LinEq1:  Iter=  5 NonCon=     1 RMS=1.04D-03 Max=1.76D-02
 FoFJK:  IHMeth= 1 ICntrl=     0 DoSepK=T KAlg= 1 I1Cent= 0 FoldK=F
 LinEq1:  Iter=  6 NonCon=     1 RMS=2.79D-04 Max=4.20D-03
 FoFJK:  IHMeth= 1 ICntrl=     0 DoSepK=T KAlg= 1 I1Cent= 0 FoldK=F
 LinEq1:  Iter=  7 NonCon=     1 RMS=7.69D-05 Max=1.11D-03
 FoFJK:  IHMeth= 1 ICntrl=     0 DoSepK=T KAlg= 1 I1Cent= 0 FoldK=F
 LinEq1:  Iter=  8 NonCon=     1 RMS=1.64D-05 Max=1.61D-04
 FoFJK:  IHMeth= 1 ICntrl=     0 DoSepK=T KAlg= 1 I1Cent= 0 FoldK=F
 LinEq1:  Iter=  9 NonCon=     1 RMS=3.25D-06 Max=2.22D-05
 FoFJK:  IHMeth= 1 ICntrl=     0 DoSepK=T KAlg= 1 I1Cent= 0 FoldK=F
 LinEq1:  Iter= 10 NonCon=     1 RMS=6.49D-07 Max=5.61D-06
 FoFJK:  IHMeth= 1 ICntrl=     0 DoSepK=T KAlg= 1 I1Cent= 0 FoldK=F
 LinEq1:  Iter= 11 NonCon=     1 RMS=1.27D-07 Max=1.50D-06
 FoFJK:  IHMeth= 1 ICntrl=     0 DoSepK=T KAlg= 1 I1Cent= 0 FoldK=F
 LinEq1:  Iter= 12 NonCon=     1 RMS=2.33D-08 Max=2.59D-07
 FoFJK:  IHMeth= 1 ICntrl=     0 DoSepK=T KAlg= 1 I1Cent= 0 FoldK=F
 LinEq1:  Iter= 13 NonCon=     1 RMS=4.10D-09 Max=4.37D-08
 FoFJK:  IHMeth= 1 ICntrl=     0 DoSepK=T KAlg= 1 I1Cent= 0 FoldK=F
 LinEq1:  Iter= 14 NonCon=     1 RMS=6.55D-10 Max=5.83D-09
 FoFJK:  IHMeth= 1 ICntrl=     0 DoSepK=T KAlg= 1 I1Cent= 0 FoldK=F
 LinEq1:  Iter= 15 NonCon=     0 RMS=9.66D-11 Max=6.44D-10
 Linear equations converged to 1.000D-10 1.000D-09 after    15 iterations.
 FoFJK:  IHMeth= 1 ICntrl=     0 DoSepK=T KAlg= 1 I1Cent= 0 FoldK=F
 End of Minotr Frequency-dependent properties file   721 does not exist.
 End of Minotr Frequency-dependent properties file   722 does not exist.

 **********************************************************************

            Population analysis using the SCF density.

 **********************************************************************

 Alpha  occ. eigenvalues --  -19.23904 -14.42117 -10.40172  -1.12394  -0.95890
 Alpha  occ. eigenvalues --   -0.69721  -0.60078  -0.55438  -0.51664  -0.45951
 Alpha  occ. eigenvalues --   -0.35352  -0.32954
 Alpha virt. eigenvalues --   -0.04047   0.01713   0.03396   0.04454   0.06492
 Alpha virt. eigenvalues --    0.08947   0.10254   0.13123   0.14044   0.14379
 Alpha virt. eigenvalues --    0.16485   0.17198   0.19127   0.21106   0.23958
 Alpha virt. eigenvalues --    0.24111   0.26114   0.26701   0.29599   0.30640
 Alpha virt. eigenvalues --    0.32354   0.37011   0.40059   0.42168   0.44675
 Alpha virt. eigenvalues --    0.47215   0.47904   0.49078   0.52212   0.53672
 Alpha virt. eigenvalues --    0.55988   0.57335   0.59882   0.60940   0.66824
 Alpha virt. eigenvalues --    0.67889   0.69644   0.70967   0.75104   0.79538
 Alpha virt. eigenvalues --    0.81361   0.87377   0.91140   1.02086   1.05015
 Alpha virt. eigenvalues --    1.08304   1.11564   1.13975   1.19805   1.21948
 Alpha virt. eigenvalues --    1.27494   1.33039   1.44689   1.46502   1.53909
 Alpha virt. eigenvalues --    1.55537   1.64107   1.73157   1.80594   1.82293
 Alpha virt. eigenvalues --    1.84311   1.92100   1.94080   1.97183   2.03499
 Alpha virt. eigenvalues --    2.07597   2.09987   2.14137   2.17079   2.25903
 Alpha virt. eigenvalues --    2.32510   2.44445   2.53599   2.59888   2.61179
 Alpha virt. eigenvalues --    2.73692   2.88113   3.07651   3.23940   3.39885
 Alpha virt. eigenvalues --    3.41559   3.45237   3.52141   3.64665
          Condensed to atoms (all electrons):
              1          2          3          4          5          6
     1  C    4.637132   0.307662   0.258796  -0.102371  -0.083138   0.162743
     2  N    0.307662   6.158734  -0.080133   0.372113   0.363881  -0.105406
     3  O    0.258796  -0.080133   8.344230   0.009127   0.005027  -0.033075
     4  H   -0.102371   0.372113   0.009127   0.912391  -0.185342   0.026149
     5  H   -0.083138   0.363881   0.005027  -0.185342   0.938715  -0.009169
     6  H    0.162743  -0.105406  -0.033075   0.026149  -0.009169   1.195069
 Mulliken atomic charges:
              1
     1  C    0.819176
     2  N   -0.016851
     3  O   -0.503973
     4  H   -0.032067
     5  H   -0.029974
     6  H   -0.236311
 Sum of Mulliken atomic charges =   0.00000
 Mulliken charges with hydrogens summed into heavy atoms:
              1
     1  C    0.582865
     2  N   -0.078893
     3  O   -0.503973
 Sum of Mulliken charges with hydrogens summed into heavy atoms =   0.00000
 Electronic spatial extent (au):  <R**2>=            154.1385
 Charge=              0.0000 electrons
 Dipole moment (field-independent basis, Debye):
    X=              3.8463    Y=              1.4408    Z=              1.7121  Tot=              4.4499
 Quadrupole moment (field-independent basis, Debye-Ang):
   XX=            -18.7558   YY=            -15.8931   ZZ=            -19.0285
   XY=             -1.0799   XZ=             -1.6666   YZ=             -1.7320
 Traceless Quadrupole moment (field-independent basis, Debye-Ang):
   XX=             -0.8633   YY=              1.9994   ZZ=             -1.1361
   XY=             -1.0799   XZ=             -1.6666   YZ=             -1.7320
 Octapole moment (field-independent basis, Debye-Ang**2):
  XXX=             14.9501  YYY=              0.4870  ZZZ=              4.6515  XYY=              2.5044
  XXY=             -0.5150  XXZ=              0.9555  XZZ=              0.1013  YZZ=             -0.0792
  YYZ=              2.7834  XYZ=             -1.8029
 Hexadecapole moment (field-independent basis, Debye-Ang**3):
 XXXX=           -120.8104 YYYY=            -33.0266 ZZZZ=            -29.4606 XXXY=              5.4174
 XXXZ=            -12.3283 YYYX=              1.7304 YYYZ=             -5.0629 ZZZX=             -5.9336
 ZZZY=             -4.0847 XXYY=            -25.1428 XXZZ=            -26.7757 YYZZ=            -11.6228
 XXYZ=             -3.9509 YYXZ=             -0.9686 ZZXY=              1.7520
 N-N= 6.837095648960D+01 E-N=-5.345845531181D+02  KE= 1.684137699776D+02
 D1PCM: PCM CHGder 1st derivatives, ID1Alg=3 FixD1E=F DoIter=F DoCFld=F I1PDM=6.
 Calling FoFJK, ICntrl=      5127 FMM=F ISym2X=0 I1Cent= 0 IOpClX= 0 NMat=1 NMatS=1 NMatT=0.
 FoFJK:  IHMeth= 1 ICntrl=  5127 DoSepK=T KAlg= 1 I1Cent= 0 FoldK=F
 -------------------------------------------------------------------
 Center     Atomic                   Forces (Hartrees/Bohr)
 Number     Number              X              Y              Z
 -------------------------------------------------------------------
      1        6          -0.003797130   -0.021465977   -0.019705829
      2        7           0.008029658    0.006093157    0.015822116
      3        8          -0.018449883    0.008048149   -0.002597999
      4        1           0.004024182    0.008623527    0.006707220
      5        1          -0.002972771   -0.000114895   -0.010300260
      6        1           0.013165943   -0.001183961    0.010074752
 -------------------------------------------------------------------
 Cartesian Forces:  Max     0.021465977 RMS     0.010939542

 GradGradGradGradGradGradGradGradGradGradGradGradGradGradGradGradGradGrad
 Berny optimization.
 Internal  Forces:  Max     0.036096247 RMS     0.012635966
 Search for a local minimum.
 Step number   1 out of a maximum of  100
 All quantities printed in internal units (Hartrees-Bohrs-Radians)
 Mixed Optimization -- RFO/linear search
 Second derivative matrix not updated -- first step.
 The second derivative matrix:
                          R1        R2        R3        R4        R5
           R1           0.35451
           R2           0.00000   0.73840
           R3           0.00000   0.00000   0.31830
           R4           0.00000   0.00000   0.00000   0.43908
           R5           0.00000   0.00000   0.00000   0.00000   0.44584
           A1           0.00000   0.00000   0.00000   0.00000   0.00000
           A2           0.00000   0.00000   0.00000   0.00000   0.00000
           A3           0.00000   0.00000   0.00000   0.00000   0.00000
           A4           0.00000   0.00000   0.00000   0.00000   0.00000
           A5           0.00000   0.00000   0.00000   0.00000   0.00000
           A6           0.00000   0.00000   0.00000   0.00000   0.00000
           D1           0.00000   0.00000   0.00000   0.00000   0.00000
           D2           0.00000   0.00000   0.00000   0.00000   0.00000
           D3           0.00000   0.00000   0.00000   0.00000   0.00000
           D4           0.00000   0.00000   0.00000   0.00000   0.00000
                          A1        A2        A3        A4        A5
           A1           0.25000
           A2           0.00000   0.16000
           A3           0.00000   0.00000   0.16000
           A4           0.00000   0.00000   0.00000   0.16000
           A5           0.00000   0.00000   0.00000   0.00000   0.16000
           A6           0.00000   0.00000   0.00000   0.00000   0.00000
           D1           0.00000   0.00000   0.00000   0.00000   0.00000
           D2           0.00000   0.00000   0.00000   0.00000   0.00000
           D3           0.00000   0.00000   0.00000   0.00000   0.00000
           D4           0.00000   0.00000   0.00000   0.00000   0.00000
                          A6        D1        D2        D3        D4
           A6           0.16000
           D1           0.00000   0.00734
           D2           0.00000   0.00000   0.00734
           D3           0.00000   0.00000   0.00000   0.00734
           D4           0.00000   0.00000   0.00000   0.00000   0.00734
     Eigenvalues ---    0.00734   0.01586   0.04420   0.16000   0.16000
     Eigenvalues ---    0.16000   0.23157   0.31830   0.35451   0.43908
     Eigenvalues ---    0.44584   0.738401000.000001000.000001000.00000
 RFO step:  Lambda=-2.06787700D-02 EMin= 7.33703947D-03
 Linear search not attempted -- first point.
 Maximum step size (   0.300) exceeded in Quadratic search.
    -- Step size scaled by   0.438
 Iteration  1 RMS(Cart)=  0.06975181 RMS(Int)=  0.00311566
 Iteration  2 RMS(Cart)=  0.00319561 RMS(Int)=  0.00002278
 Iteration  3 RMS(Cart)=  0.00000656 RMS(Int)=  0.00002211
 Iteration  4 RMS(Cart)=  0.00000000 RMS(Int)=  0.00002211
 Variable       Old X    -DE/DX   Delta X   Delta X   Delta X     New X
                                 (Linear)    (Quad)   (Total)
    R1        2.78248  -0.00087   0.00000  -0.00102  -0.00102   2.78146
    R2        2.41419   0.01211   0.00000   0.00698   0.00698   2.42117
    R3        2.11157  -0.00127   0.00000  -0.00164  -0.00164   2.10993
    R4        1.93265  -0.00295   0.00000  -0.00281  -0.00281   1.92984
    R5        1.92462   0.00099   0.00000   0.00093   0.00093   1.92555
    A1        1.95747   0.03610   0.00000   0.06715   0.06716   2.02464
    A2        1.97636  -0.02262   0.00000  -0.04183  -0.04181   1.93455
    A3        1.96791  -0.00226   0.00000   0.01528   0.01531   1.98322
    A4        2.04575  -0.00001   0.00000  -0.00173  -0.00177   2.04398
    A5        2.15118  -0.00117   0.00000  -0.00451  -0.00455   2.14663
    A6        1.98328   0.00053   0.00000  -0.00061  -0.00065   1.98262
    D1       -1.50942  -0.00529   0.00000  -0.12832  -0.12833  -1.63775
    D2        2.13501  -0.00398   0.00000  -0.11260  -0.11262   2.02239
    D3        2.52234  -0.01426   0.00000  -0.17241  -0.17239   2.34995
    D4       -0.11642  -0.01295   0.00000  -0.15669  -0.15669  -0.27310
         Item               Value     Threshold  Converged?
 Maximum Force            0.036096     0.000450     NO 
 RMS     Force            0.012636     0.000300     NO 
 Maximum Displacement     0.114134     0.001800     NO 
 RMS     Displacement     0.069706     0.001200     NO 
 Predicted change in Energy=-8.001022D-03
 GradGradGradGradGradGradGradGradGradGradGradGradGradGradGradGradGradGrad

                          Input orientation:                          
 ---------------------------------------------------------------------
 Center     Atomic      Atomic             Coordinates (Angstroms)
 Number     Number       Type             X           Y           Z
 ---------------------------------------------------------------------
      1          6           0       -0.233766    0.344172    0.236149
      2          7           0        1.078422   -0.242496   -0.080765
      3          8           0       -1.223058   -0.085805   -0.455202
      4          1           0        1.374998   -1.046683    0.474423
      5          1           0        1.853492    0.301948   -0.456431
      6          1           0       -0.170317    1.457948    0.282043
 ---------------------------------------------------------------------
                    Distance matrix (angstroms):
                    1          2          3          4          5
     1  C    0.000000
     2  N    1.471887   0.000000
     3  O    1.281228   2.337000   0.000000
     4  H    2.139948   1.021229   2.921881   0.000000
     5  H    2.199567   1.018959   3.100889   1.707118   0.000000
     6  H    1.116525   2.140674   2.008723   2.949268   2.444888
                    6
     6  H    0.000000
 Symmetry turned off by external request.
 Stoichiometry    CH3NO
 Framework group  C1[X(CH3NO)]
 Deg. of freedom    12
 Full point group                 C1      NOp   1
 Rotational constants (GHZ):     60.1455822     10.3468947      9.3842847
 Standard basis: Aug-CC-pVDZ (5D, 7F)
 Integral buffers will be    131072 words long.
 Raffenetti 2 integral format.
 Two-electron integral symmetry is turned off.
    96 basis functions,   162 primitive gaussians,   102 cartesian basis functions
    12 alpha electrons       12 beta electrons
       nuclear repulsion energy        67.9967551838 Hartrees.
 NAtoms=    6 NActive=    6 NUniq=    6 SFac= 7.50D-01 NAtFMM=   80 NAOKFM=F Big=F
 Standard density basis: Auto (5D, 7F)
   327 Density fitting functions
 ------------------------------------------------------------------------------
 Polarizable Continuum Model (PCM)
 =================================
 Model                : PCM.
 Atomic radii         : UFF (Universal Force Field).
 Polarization charges : Total charges.
 Charge compensation  : None.
 Solution method      : Matrix inversion.
 Cavity type          : Scaled VdW (van der Waals Surface) (Alpha=1.100).
 Cavity algorithm     : GePol (No added spheres)
                        Default sphere list used, NSphG=    6.
                        Lebedev-Laikov grids with approx.  5.0 points / Ang**2.
                        Smoothing algorithm: Karplus/York (Gamma=1.0000).
                        Polarization charges: spherical gaussians, with
                                              point-specific exponents (IZeta= 3).
                        Self-potential: point-specific (ISelfS= 7).
                        Self-field    : sphere-specific E.n sum rule (ISelfD= 2).
 1st derivatives      : Analytical E(r).r(x)/FMM algorithm (CHGder, D1EAlg=3).
                        Cavity 1st derivative terms included.
 Solvent              : Water, Eps=  78.355300 Eps(inf)=   1.777849
 ------------------------------------------------------------------------------
 Spheres list:
 ISph  on   Nord    Re0     Alpha      Xe            Ye            Ze
    1   C      1    1.926   1.100     -0.233766      0.344172      0.236149
    2   N      2    1.830   1.100      1.078422     -0.242496     -0.080765
    3   O      3    1.750   1.100     -1.223058     -0.085805     -0.455202
    4   H      4    1.443   1.100      1.374998     -1.046683      0.474423
    5   H      5    1.443   1.100      1.853492      0.301948     -0.456431
    6   H      6    1.443   1.100     -0.170317      1.457948      0.282043
 ------------------------------------------------------------------------------
 One-electron integrals computed using PRISM.
 NBasis=    96 RedAO= T  NBF=    96
 NBsUse=    96 1.00D-06 NBFU=    96
 Initial guess read from the read-write file.
 B after Tr=     0.000000    0.000000    0.000000
         Rot=    1.000000    0.000000    0.000000    0.000000 Ang=   0.00 deg.
 Harris functional with IExCor=20419 diagonalized for initial guess.
 ExpMin= 2.97D-02 ExpMax= 1.17D+04 ExpMxC= 4.01D+02 IAcc=3 IRadAn=         5 AccDes= 0.00D+00
 HarFok:  IExCor=20419 AccDes= 0.00D+00 IRadAn=         5 IDoV= 1
 ScaDFX=  1.000000  1.000000  1.000000  1.000000
 FoFCou: FMM=F IPFlag=           0 FMFlag=      100000 FMFlg1=           0
         NFxFlg=           0 DoJE=T BraDBF=F KetDBF=T FulRan=T
         Omega=  0.000000  0.000000  1.000000  0.000000  0.000000 ICntrl=     500 IOpCl=  0
         NMat0=    1 NMatS0=    1 NMatT0=    0 NMatD0=    1 NMtDS0=    0 NMtDT0=    0
         I1Cent=           4 NGrid=           0.
 Symmetry not used in FoFCou.
 Requested convergence on RMS density matrix=1.00D-08 within 128 cycles.
 Requested convergence on MAX density matrix=1.00D-06.
 Requested convergence on             energy=1.00D-06.
 No special actions if energy rises.
 FoFJK:  IHMeth= 1 ICntrl=     0 DoSepK=T KAlg= 1 I1Cent= 0 FoldK=F
 FoFJK:  IHMeth= 1 ICntrl=     0 DoSepK=T KAlg= 1 I1Cent= 0 FoldK=F
 FoFJK:  IHMeth= 1 ICntrl=     0 DoSepK=T KAlg= 1 I1Cent= 0 FoldK=F
 FoFJK:  IHMeth= 1 ICntrl=     0 DoSepK=T KAlg= 1 I1Cent= 0 FoldK=F
 FoFJK:  IHMeth= 1 ICntrl=     0 DoSepK=T KAlg= 1 I1Cent= 0 FoldK=F
 FoFJK:  IHMeth= 1 ICntrl=     0 DoSepK=T KAlg= 1 I1Cent= 0 FoldK=F
 FoFJK:  IHMeth= 1 ICntrl=     0 DoSepK=T KAlg= 1 I1Cent= 0 FoldK=F
 FoFJK:  IHMeth= 1 ICntrl=     0 DoSepK=T KAlg= 1 I1Cent= 0 FoldK=F
 FoFJK:  IHMeth= 1 ICntrl=     0 DoSepK=T KAlg= 1 I1Cent= 0 FoldK=F
 FoFJK:  IHMeth= 1 ICntrl=     0 DoSepK=T KAlg= 1 I1Cent= 0 FoldK=F
 FoFJK:  IHMeth= 1 ICntrl=     0 DoSepK=T KAlg= 1 I1Cent= 0 FoldK=F
 FoFJK:  IHMeth= 1 ICntrl=     0 DoSepK=T KAlg= 1 I1Cent= 0 FoldK=F
 FoFJK:  IHMeth= 1 ICntrl=     0 DoSepK=T KAlg= 1 I1Cent= 0 FoldK=F
 Error on total polarization charges =  0.01121
 SCF Done:  E(RCAM-B3LYP) =  -169.792771339     A.U. after   13 cycles
             Convg  =    0.5328D-08             -V/T =  2.0084
 ExpMin= 2.97D-02 ExpMax= 1.17D+04 ExpMxC= 4.01D+02 IAcc=3 IRadAn=         5 AccDes= 0.00D+00
 HarFok:  IExCor=  205 AccDes= 0.00D+00 IRadAn=         5 IDoV=-2
 ScaDFX=  1.000000  1.000000  1.000000  1.000000
 Range of M.O.s used for correlation:     4    96
 NBasis=    96 NAE=    12 NBE=    12 NFC=     3 NFV=     0
 NROrb=     93 NOA=     9 NOB=     9 NVA=    84 NVB=    84
 NEqPCM:  Using equilibrium solvation (IEInf=0, Eps=  78.3553, EpsInf=   1.7778)
 Generating guess from densities on rwf.
 Convergence on wavefunction:    0.000001000000000
 Iteration     1 Dimension    40 NMult    40
 CISAX will form    40 AO SS matrices at one time.
 FoFJK:  IHMeth= 1 ICntrl=     0 DoSepK=T KAlg= 1 I1Cent= 0 FoldK=F
 FoFJK:  IHMeth= 1 ICntrl=     0 DoSepK=T KAlg= 1 I1Cent= 0 FoldK=F
 New state      6 was old state      7
 New state      7 was old state      6
 Iteration     2 Dimension    80 NMult    80
 FoFJK:  IHMeth= 1 ICntrl=     0 DoSepK=T KAlg= 1 I1Cent= 0 FoldK=F
 FoFJK:  IHMeth= 1 ICntrl=     0 DoSepK=T KAlg= 1 I1Cent= 0 FoldK=F
 New state      6 was old state      7
 New state      7 was old state      6
 Iteration     3 Dimension   120 NMult   120
 FoFJK:  IHMeth= 1 ICntrl=     0 DoSepK=T KAlg= 1 I1Cent= 0 FoldK=F
 FoFJK:  IHMeth= 1 ICntrl=     0 DoSepK=T KAlg= 1 I1Cent= 0 FoldK=F
 Iteration     4 Dimension   160 NMult   160
 FoFJK:  IHMeth= 1 ICntrl=     0 DoSepK=T KAlg= 1 I1Cent= 0 FoldK=F
 FoFJK:  IHMeth= 1 ICntrl=     0 DoSepK=T KAlg= 1 I1Cent= 0 FoldK=F
 Iteration     5 Dimension   200 NMult   200
 FoFJK:  IHMeth= 1 ICntrl=     0 DoSepK=T KAlg= 1 I1Cent= 0 FoldK=F
 FoFJK:  IHMeth= 1 ICntrl=     0 DoSepK=T KAlg= 1 I1Cent= 0 FoldK=F
 Iteration     6 Dimension   240 NMult   240
 FoFJK:  IHMeth= 1 ICntrl=     0 DoSepK=T KAlg= 1 I1Cent= 0 FoldK=F
 FoFJK:  IHMeth= 1 ICntrl=     0 DoSepK=T KAlg= 1 I1Cent= 0 FoldK=F
 Iteration     7 Dimension   274 NMult   274
 FoFJK:  IHMeth= 1 ICntrl=     0 DoSepK=T KAlg= 1 I1Cent= 0 FoldK=F
 FoFJK:  IHMeth= 1 ICntrl=     0 DoSepK=T KAlg= 1 I1Cent= 0 FoldK=F
 Iteration     8 Dimension   286 NMult   286
 FoFJK:  IHMeth= 1 ICntrl=     0 DoSepK=T KAlg= 1 I1Cent= 0 FoldK=F
 FoFJK:  IHMeth= 1 ICntrl=     0 DoSepK=T KAlg= 1 I1Cent= 0 FoldK=F
 Iteration     9 Dimension   294 NMult   294
 FoFJK:  IHMeth= 1 ICntrl=     0 DoSepK=T KAlg= 1 I1Cent= 0 FoldK=F
 FoFJK:  IHMeth= 1 ICntrl=     0 DoSepK=T KAlg= 1 I1Cent= 0 FoldK=F
 Iteration    10 Dimension   296 NMult   296
 FoFJK:  IHMeth= 1 ICntrl=     0 DoSepK=T KAlg= 1 I1Cent= 0 FoldK=F
 FoFJK:  IHMeth= 1 ICntrl=     0 DoSepK=T KAlg= 1 I1Cent= 0 FoldK=F
 Iteration    11 Dimension   298 NMult   298
 FoFJK:  IHMeth= 1 ICntrl=     0 DoSepK=T KAlg= 1 I1Cent= 0 FoldK=F
 FoFJK:  IHMeth= 1 ICntrl=     0 DoSepK=T KAlg= 1 I1Cent= 0 FoldK=F
 ***********************************************************************
 Excited states from <AA,BB:AA,BB> singles matrix:
 ***********************************************************************
 
 Ground to excited state transition electric dipole moments (Au):
       state          X           Y           Z        Dip. S.      Osc.
         1        -0.1288     -0.0620      0.0487      0.0228      0.0019
         2         0.6873     -0.2452     -0.0325      0.5335      0.0503
         3         0.3686      0.1989      0.4162      0.3486      0.0546
         4        -0.1242      0.2903      0.1639      0.1266      0.0227
         5         0.4439     -0.0923     -0.0107      0.2057      0.0371
         6         0.2582     -0.1666     -0.1485      0.1165      0.0217
         7        -0.4727     -0.3605     -0.5660      0.6738      0.1256
         8        -0.1120     -0.1202     -0.1486      0.0491      0.0097
         9         0.1534     -0.4293      0.0409      0.2095      0.0416
        10        -0.0690      0.4682      0.0401      0.2256      0.0454
        11         0.8909      0.2171      0.3502      0.9635      0.1985
        12         0.0847     -0.1868     -0.2514      0.1052      0.0220
        13        -0.2964      0.0944      0.3257      0.2029      0.0438
        14         0.1787      0.1922      0.0597      0.0724      0.0161
        15        -0.0804      0.0325     -0.2983      0.0965      0.0219
        16         0.3862     -0.1895     -0.2260      0.2361      0.0548
        17        -0.1635      0.0522     -0.0078      0.0295      0.0069
        18         0.1549     -0.1014     -0.0248      0.0349      0.0084
        19         0.2169     -0.2051     -0.1568      0.1137      0.0276
        20        -0.0326      0.1978      0.0036      0.0402      0.0099
 Ground to excited state transition velocity dipole moments (Au):
       state          X           Y           Z        Dip. S.      Osc.
         1         0.0157      0.0080     -0.0081      0.0004      0.0020
         2        -0.0955      0.0364      0.0052      0.0105      0.0494
         3        -0.0865     -0.0462     -0.0969      0.0190      0.0539
         4         0.0327     -0.0753     -0.0428      0.0086      0.0213
         5        -0.1197      0.0258      0.0042      0.0150      0.0370
         6        -0.0703      0.0453      0.0396      0.0086      0.0205
         7         0.1299      0.1004      0.1536      0.0506      0.1205
         8         0.0301      0.0344      0.0437      0.0040      0.0090
         9        -0.0423      0.1257     -0.0114      0.0177      0.0397
        10         0.0217     -0.1392     -0.0083      0.0199      0.0440
        11        -0.2753     -0.0650     -0.1087      0.0918      0.1981
        12        -0.0267      0.0554      0.0783      0.0099      0.0211
        13         0.0924     -0.0307     -0.1064      0.0208      0.0428
        14        -0.0573     -0.0639     -0.0200      0.0078      0.0155
        15         0.0273     -0.0122      0.1026      0.0114      0.0224
        16        -0.1308      0.0606      0.0732      0.0262      0.0500
        17         0.0604     -0.0141      0.0114      0.0040      0.0076
        18        -0.0485      0.0349      0.0129      0.0037      0.0069
        19        -0.0757      0.0774      0.0610      0.0154      0.0282
        20         0.0135     -0.0744     -0.0049      0.0057      0.0103
 Ground to excited state transition magnetic dipole moments (Au):
       state          X           Y           Z
         1        -0.7464     -0.3015     -0.4772
         2        -0.6574     -0.1010     -0.1523
         3        -0.0526      0.3549     -0.2266
         4         0.0189     -0.0231      0.1629
         5         0.2189      0.1951     -0.2485
         6         0.0225      0.1436      0.0696
         7         0.1960     -0.3917     -0.2186
         8        -0.5690      0.8580      0.4188
         9         0.0647      0.0026      0.0690
        10        -0.2941      0.2690      0.1937
        11         0.3485     -0.8834      0.3276
        12         0.1906     -0.0995     -0.1295
        13         0.0716      0.1708     -0.2694
        14        -0.0729      0.1688      0.0076
        15         0.4934      0.6370      0.2016
        16        -0.1067      0.0432      0.2023
        17         0.0255      0.3350     -0.1141
        18         0.0291      0.2001     -0.0794
        19        -0.0334     -0.1014      0.2822
        20        -0.0010     -0.2990      0.1738
 <0|del|b> * <b|rxdel|0> + <0|del|b> * <b|delr+rdel|0>
 Rotatory Strengths (R) in cgs (10**-40 erg-esu-cm/Gauss)
       state          XX          YY          ZZ    R(velocity)
         1         4.5982    -24.1889    -39.0689    -19.5532
 Total R(velocity) tensor for State=          1
                 1             2             3 
      1   0.459818D+01  0.136290D+02  0.224034D+02
      2   0.161533D+02 -0.241889D+02  0.731594D+01
      3  -0.155960D+02 -0.895603D+01 -0.390689D+02
         2       -18.3147    167.5687    142.2182     97.1574
 Total R(velocity) tensor for State=          2
                 1             2             3 
      1  -0.183147D+02 -0.448096D+02 -0.226632D+02
      2   0.655799D+02  0.167569D+03  0.308972D+02
      3   0.129025D+02  0.136868D+02  0.142218D+03
         3         4.2639     12.8639     13.2725     10.1334
 Total R(velocity) tensor for State=          3
                 1             2             3 
      1   0.426391D+01  0.491901D+02 -0.272794D+02
      2  -0.235958D+02  0.128639D+02  0.149433D+02
      3  -0.168742D+02  0.377957D+01  0.132725D+02
         4       -18.6047      2.6208      3.8201     -4.0546
 Total R(velocity) tensor for State=          4
                 1             2             3 
      1  -0.186047D+02  0.295182D+01 -0.193919D+02
      2   0.125940D+02  0.262079D+01  0.499969D+01
      3  -0.121028D+02 -0.742031D+01  0.382011D+01
         5         2.6901    -23.7707    -36.9632    -19.3479
 Total R(velocity) tensor for State=          5
                 1             2             3 
      1   0.269011D+01  0.212782D+02 -0.539933D+02
      2  -0.700386D+01 -0.237707D+02 -0.529678D+02
      3   0.208331D+01  0.156858D+02 -0.369632D+02
         6        20.5583     -6.7116      5.6144      6.4870
 Total R(velocity) tensor for State=          6
                 1             2             3 
      1   0.205583D+02  0.761839D+01  0.277556D+02
      2   0.963560D+01 -0.671165D+01  0.247561D+02
      3   0.780639D+01  0.720363D+01  0.561444D+01
         7       -86.0323      8.5541    -42.5095    -39.9959
 Total R(velocity) tensor for State=          7
                 1             2             3 
      1  -0.860323D+02  0.145100D+03 -0.221014D+02
      2  -0.219832D+02  0.855412D+01  0.130009D+02
      3  -0.444111D+02  0.122470D+03 -0.425095D+02
         8        74.9299     -8.5643      7.0830     24.4829
 Total R(velocity) tensor for State=          8
                 1             2             3 
      1   0.749299D+02 -0.340588D+02 -0.248720D+02
      2   0.299298D+02 -0.856432D+01 -0.139040D+02
      3   0.350488D+02 -0.396979D+02  0.708304D+01
         9        12.7285     -7.1849    -13.1344     -2.5303
 Total R(velocity) tensor for State=          9
                 1             2             3 
      1   0.127285D+02 -0.151736D+00 -0.488286D+02
      2  -0.166807D+02 -0.718489D+01 -0.173635D+02
      3   0.406795D+02  0.124866D+02 -0.131344D+02
        10       -58.4759    -10.5900    -37.4236    -35.4965
 Total R(velocity) tensor for State=         10
                 1             2             3 
      1  -0.584759D+02 -0.112091D+02  0.349911D+02
      2  -0.543697D+02 -0.105900D+02  0.353399D+02
      3  -0.290521D+02 -0.228645D+01 -0.374236D+02
        11        23.7066   -149.1984    -44.1845    -56.5588
 Total R(velocity) tensor for State=         11
                 1             2             3 
      1   0.237066D+02 -0.408251D+03  0.184031D+03
      2   0.468205D+02 -0.149198D+03 -0.293796D+02
      3   0.473494D+02 -0.126675D+03 -0.441845D+02
        12       -37.0804     -5.9989     -3.6456    -15.5750
 Total R(velocity) tensor for State=         12
                 1             2             3 
      1  -0.370804D+02 -0.528592D+01 -0.888816D+01
      2  -0.191122D+01 -0.599887D+01  0.359610D+01
      3  -0.192666D+02 -0.412021D+01 -0.364563D+01
        13        21.9107     41.9198      1.6918     21.8408
 Total R(velocity) tensor for State=         13
                 1             2             3 
      1   0.219107D+02 -0.355556D+02  0.293085D+02
      2  -0.240227D+01  0.419198D+02 -0.141986D+02
      3   0.106419D+02  0.261444D+02  0.169181D+01
        14       -18.0574     16.8772    -13.1560     -4.7788
 Total R(velocity) tensor for State=         14
                 1             2             3 
      1  -0.180574D+02  0.144062D+02  0.565799D+01
      2  -0.986017D+01  0.168772D+02 -0.256370D+02
      3   0.537003D+00  0.364550D+01 -0.131560D+02
        15        12.1085     36.6556      6.0786     18.2809
 Total R(velocity) tensor for State=         15
                 1             2             3 
      1   0.121085D+02 -0.221188D+02 -0.584133D+01
      2  -0.168521D+02  0.366556D+02  0.882514D+01
      3  -0.402721D+02 -0.391431D+02  0.607861D+01
        16        19.7279     45.0763     -1.1119     21.2307
 Total R(velocity) tensor for State=         16
                 1             2             3 
      1   0.197279D+02  0.214202D+02  0.175152D+02
      2   0.212636D+02  0.450763D+02  0.660065D+00
      3   0.120914D+02  0.274275D+02 -0.111194D+01
        17        -7.1025      7.9010     -9.8237     -3.0084
 Total R(velocity) tensor for State=         17
                 1             2             3 
      1  -0.710248D+01 -0.211461D+02  0.115798D+02
      2   0.575815D+01  0.790105D+01 -0.208129D+02
      3   0.358505D+01  0.745498D+01 -0.982372D+01
        18        11.7607     -4.3318      1.5418      2.9903
 Total R(velocity) tensor for State=         18
                 1             2             3 
      1   0.117607D+02  0.125975D+02  0.100876D+02
      2  -0.638203D+00 -0.433178D+01  0.935752D+01
      3  -0.362462D+01 -0.559552D+01  0.154184D+01
        19         9.7550     27.4249    -14.1029      7.6923
 Total R(velocity) tensor for State=         19
                 1             2             3 
      1   0.975502D+01 -0.990933D+01  0.246707D+02
      2   0.107343D+02  0.274249D+02 -0.214494D+02
      3   0.163402D+02  0.271181D+02 -0.141029D+02
        20        28.4756     -1.4789     13.8447     13.6138
 Total R(velocity) tensor for State=         20
                 1             2             3 
      1   0.284756D+02  0.535511D+01 -0.297538D+01
      2  -0.631103D+01 -0.147886D+01  0.509712D+01
      3  -0.160110D+02 -0.381194D+01  0.138447D+02
 1/2[<0|r|b>*<b|rxdel|0> + (<0|rxdel|b>*<b|r|0>)*]
 Rotatory Strengths (R) in cgs (10**-40 erg-esu-cm/Gauss)
       state          XX          YY          ZZ     R(length)     R(au)
         1       -68.0109    -13.2117     16.4257    -21.5990     -0.0458
         2       319.5126    -17.5095     -3.4982     99.5017      0.2111
         3        13.7093    -49.9140     66.6862     10.1605      0.0216
         4         1.6563      4.7425    -18.8917     -4.1643     -0.0088
         5       -68.7013     12.7350     -1.8807    -19.2823     -0.0409
         6        -4.1148     16.9208      7.3103      6.7054      0.0142
         7        65.4997    -99.8649    -87.4806    -40.6153     -0.0862
         8       -45.0643     72.9557     44.0142     23.9685      0.0508
         9        -7.0128      0.7835     -1.9967     -2.7420     -0.0058
        10       -14.3429    -89.0866     -5.4931    -36.3076     -0.0770
        11      -219.5507    135.6119    -81.1262    -55.0217     -0.1167
        12       -11.4207    -13.1444    -23.0270    -15.8640     -0.0336
        13        15.0027    -11.4054     62.0459     21.8811      0.0464
        14         9.2171    -22.9419     -0.3212     -4.6820     -0.0099
        15        28.0420    -14.6427     42.5226     18.6406      0.0395
        16        29.1303      5.7838     32.3238     22.4126      0.0475
        17         2.9446    -12.3565     -0.6274     -3.3464     -0.0071
        18        -3.1874     14.3501     -1.3905      3.2574      0.0069
        19         5.1248    -14.7172     31.2931      7.2336      0.0153
        20        -0.0237     41.8346     -0.4437     13.7891      0.0292
  1/2[<0|del|b>*<b|r|0> + (<0|r|b>*<b|del|0>)*] (Au)
       state          X           Y           Z        Dip. S.   Osc.(frdel)
         1        -0.0020     -0.0005     -0.0004      0.0029      0.0019
         2        -0.0657     -0.0089     -0.0002      0.0748      0.0498
         3        -0.0319     -0.0092     -0.0403      0.0814      0.0543
         4        -0.0041     -0.0219     -0.0070      0.0329      0.0220
         5        -0.0531     -0.0024      0.0000      0.0555      0.0370
         6        -0.0181     -0.0075     -0.0059      0.0316      0.0210
         7        -0.0614     -0.0362     -0.0870      0.1846      0.1231
         8        -0.0034     -0.0041     -0.0065      0.0140      0.0093
         9        -0.0065     -0.0539     -0.0005      0.0609      0.0406
        10        -0.0015     -0.0652     -0.0003      0.0670      0.0447
        11        -0.2453     -0.0141     -0.0381      0.2974      0.1983
        12        -0.0023     -0.0104     -0.0197      0.0323      0.0215
        13        -0.0274     -0.0029     -0.0346      0.0649      0.0433
        14        -0.0102     -0.0123     -0.0012      0.0237      0.0158
        15        -0.0022     -0.0004     -0.0306      0.0332      0.0221
        16        -0.0505     -0.0115     -0.0165      0.0786      0.0524
        17        -0.0099     -0.0007     -0.0001      0.0107      0.0071
        18        -0.0075     -0.0035     -0.0003      0.0114      0.0076
        19        -0.0164     -0.0159     -0.0096      0.0419      0.0279
        20        -0.0004     -0.0147      0.0000      0.0152      0.0101
 Ground to excited state transition densities written to RWF  633

 Excitation energies and oscillator strengths:
 
 Excited state symmetry could not be determined.
 Excited State   1:      Singlet-?Sym    3.3718 eV  367.71 nm  f=0.0019  <S**2>=0.000
      11 -> 13         0.63317
      12 -> 13        -0.30304
 
 Excited state symmetry could not be determined.
 Excited State   2:      Singlet-?Sym    3.8512 eV  321.94 nm  f=0.0503  <S**2>=0.000
      11 -> 13         0.30094
      12 -> 13         0.63214
 This state for optimization and/or second-order correction.
 Copying the excited state density for this state as the 1-particle RhoCI density.
 
 Excited state symmetry could not be determined.
 Excited State   3:      Singlet-?Sym    6.3915 eV  193.98 nm  f=0.0546  <S**2>=0.000
      12 -> 14         0.65167
      12 -> 15         0.15585
      12 -> 20        -0.15021
 
 Excited state symmetry could not be determined.
 Excited State   4:      Singlet-?Sym    7.3078 eV  169.66 nm  f=0.0227  <S**2>=0.000
      12 -> 14        -0.11255
      12 -> 15         0.57293
      12 -> 16         0.33470
      12 -> 21         0.12148
      12 -> 24        -0.12202
 
 Excited state symmetry could not be determined.
 Excited State   5:      Singlet-?Sym    7.3584 eV  168.49 nm  f=0.0371  <S**2>=0.000
      11 -> 14        -0.58512
      11 -> 15         0.21722
      11 -> 16        -0.11808
      11 -> 17         0.21387
      11 -> 20         0.12419
      12 -> 16         0.10984
 
 Excited state symmetry could not be determined.
 Excited State   6:      Singlet-?Sym    7.5871 eV  163.41 nm  f=0.0217  <S**2>=0.000
      11 -> 14         0.10473
      12 -> 14         0.11359
      12 -> 15        -0.31098
      12 -> 16         0.57494
      12 -> 24        -0.13058
 
 Excited state symmetry could not be determined.
 Excited State   7:      Singlet-?Sym    7.6105 eV  162.91 nm  f=0.1256  <S**2>=0.000
       9 -> 13        -0.22289
      10 -> 13         0.60350
      11 -> 14        -0.10109
      11 -> 15        -0.18712
 
 Excited state symmetry could not be determined.
 Excited State   8:      Singlet-?Sym    8.0288 eV  154.42 nm  f=0.0097  <S**2>=0.000
       9 -> 13         0.46269
      11 -> 15        -0.34120
      12 -> 17        -0.35677
 
 Excited state symmetry could not be determined.
 Excited State   9:      Singlet-?Sym    8.0983 eV  153.10 nm  f=0.0416  <S**2>=0.000
      10 -> 13        -0.12123
      11 -> 14        -0.15800
      11 -> 15        -0.40319
      11 -> 17         0.12001
      11 -> 19        -0.10358
      12 -> 17         0.48425
 
 Excited state symmetry could not be determined.
 Excited State  10:      Singlet-?Sym    8.2115 eV  150.99 nm  f=0.0454  <S**2>=0.000
       9 -> 13         0.24053
      11 -> 14        -0.15056
      11 -> 15         0.15239
      11 -> 16         0.43134
      11 -> 17        -0.31253
      11 -> 18        -0.13285
      12 -> 17         0.24403
 
 Excited state symmetry could not be determined.
 Excited State  11:      Singlet-?Sym    8.4075 eV  147.47 nm  f=0.1985  <S**2>=0.000
       9 -> 13        -0.39062
      10 -> 13        -0.27512
      11 -> 14        -0.20189
      11 -> 15        -0.24393
      11 -> 16         0.22060
      11 -> 17        -0.23032
      12 -> 17        -0.20805
 
 Excited state symmetry could not be determined.
 Excited State  12:      Singlet-?Sym    8.5442 eV  145.11 nm  f=0.0220  <S**2>=0.000
      11 -> 16         0.40532
      11 -> 17         0.51666
      11 -> 18        -0.15875
 
 Excited state symmetry could not be determined.
 Excited State  13:      Singlet-?Sym    8.8151 eV  140.65 nm  f=0.0438  <S**2>=0.000
      12 -> 14        -0.11552
      12 -> 18         0.64195
      12 -> 19         0.13974
 
 Excited state symmetry could not be determined.
 Excited State  14:      Singlet-?Sym    9.0757 eV  136.61 nm  f=0.0161  <S**2>=0.000
      12 -> 18        -0.16358
      12 -> 19         0.65577
 
 Excited state symmetry could not be determined.
 Excited State  15:      Singlet-?Sym    9.2715 eV  133.73 nm  f=0.0219  <S**2>=0.000
       7 -> 13         0.21063
       8 -> 13         0.64242
 
 Excited state symmetry could not be determined.
 Excited State  16:      Singlet-?Sym    9.4812 eV  130.77 nm  f=0.0548  <S**2>=0.000
      11 -> 16         0.12240
      11 -> 18         0.36915
      12 -> 14        -0.10538
      12 -> 20        -0.44490
      12 -> 21         0.26142
      12 -> 23         0.10972
 
 Excited state symmetry could not be determined.
 Excited State  17:      Singlet-?Sym    9.5310 eV  130.08 nm  f=0.0069  <S**2>=0.000
      11 -> 16         0.16547
      11 -> 18         0.51162
      12 -> 20         0.33194
      12 -> 21        -0.19184
 
 Excited state symmetry could not be determined.
 Excited State  18:      Singlet-?Sym    9.7796 eV  126.78 nm  f=0.0084  <S**2>=0.000
      11 -> 15        -0.12953
      11 -> 16        -0.12673
      11 -> 19         0.64840
 
 Excited state symmetry could not be determined.
 Excited State  19:      Singlet-?Sym    9.9222 eV  124.96 nm  f=0.0276  <S**2>=0.000
      12 -> 15         0.14264
      12 -> 21        -0.10762
      12 -> 22         0.64023
      12 -> 23         0.10553
 
 Excited state symmetry could not be determined.
 Excited State  20:      Singlet-?Sym   10.0746 eV  123.07 nm  f=0.0099  <S**2>=0.000
      12 -> 15        -0.13028
      12 -> 20         0.30314
      12 -> 21         0.54715
      12 -> 22         0.11190
      12 -> 23        -0.12068
      12 -> 24        -0.12451
 SavETr:  write IOETrn=   770 NScale= 10 NData=  16 NLR=1 LETran=     370.
 FoFJK:  IHMeth= 1 ICntrl=     0 DoSepK=T KAlg= 1 I1Cent= 0 FoldK=F
 FoFJK:  IHMeth= 1 ICntrl=     0 DoSepK=T KAlg= 1 I1Cent= 0 FoldK=F
          IDoAtm=111111
 NEqPCM:  Using equilibrium solvation (IEInf=0, Eps=  78.3553, EpsInf=   1.7778)
          Differentiating once with respect to electric field.
                with respect to dipole field.
          Differentiating once with respect to nuclear coordinates.
          There are     1 degrees of freedom in the 1st order CPHF.  IDoFFX=0.
 FoFJK:  IHMeth= 1 ICntrl=     0 DoSepK=T KAlg= 1 I1Cent= 0 FoldK=F
 LinEq1:  Iter=  0 NonCon=     1 RMS=3.64D-02 Max=6.57D-01
 AX will form     1 AO Fock derivatives at one time.
 FoFJK:  IHMeth= 1 ICntrl=     0 DoSepK=T KAlg= 1 I1Cent= 0 FoldK=F
 LinEq1:  Iter=  1 NonCon=     1 RMS=1.48D-02 Max=2.39D-01
 FoFJK:  IHMeth= 1 ICntrl=     0 DoSepK=T KAlg= 1 I1Cent= 0 FoldK=F
 LinEq1:  Iter=  2 NonCon=     1 RMS=1.10D-02 Max=1.87D-01
 FoFJK:  IHMeth= 1 ICntrl=     0 DoSepK=T KAlg= 1 I1Cent= 0 FoldK=F
 LinEq1:  Iter=  3 NonCon=     1 RMS=6.14D-03 Max=4.84D-02
 FoFJK:  IHMeth= 1 ICntrl=     0 DoSepK=T KAlg= 1 I1Cent= 0 FoldK=F
 LinEq1:  Iter=  4 NonCon=     1 RMS=3.02D-03 Max=2.56D-02
 FoFJK:  IHMeth= 1 ICntrl=     0 DoSepK=T KAlg= 1 I1Cent= 0 FoldK=F
 LinEq1:  Iter=  5 NonCon=     1 RMS=9.22D-04 Max=1.30D-02
 FoFJK:  IHMeth= 1 ICntrl=     0 DoSepK=T KAlg= 1 I1Cent= 0 FoldK=F
 LinEq1:  Iter=  6 NonCon=     1 RMS=2.45D-04 Max=3.69D-03
 FoFJK:  IHMeth= 1 ICntrl=     0 DoSepK=T KAlg= 1 I1Cent= 0 FoldK=F
 LinEq1:  Iter=  7 NonCon=     1 RMS=6.90D-05 Max=1.23D-03
 FoFJK:  IHMeth= 1 ICntrl=     0 DoSepK=T KAlg= 1 I1Cent= 0 FoldK=F
 LinEq1:  Iter=  8 NonCon=     1 RMS=1.60D-05 Max=1.78D-04
 FoFJK:  IHMeth= 1 ICntrl=     0 DoSepK=T KAlg= 1 I1Cent= 0 FoldK=F
 LinEq1:  Iter=  9 NonCon=     1 RMS=3.28D-06 Max=2.23D-05
 FoFJK:  IHMeth= 1 ICntrl=     0 DoSepK=T KAlg= 1 I1Cent= 0 FoldK=F
 LinEq1:  Iter= 10 NonCon=     1 RMS=6.76D-07 Max=6.05D-06
 FoFJK:  IHMeth= 1 ICntrl=     0 DoSepK=T KAlg= 1 I1Cent= 0 FoldK=F
 LinEq1:  Iter= 11 NonCon=     1 RMS=1.29D-07 Max=1.39D-06
 FoFJK:  IHMeth= 1 ICntrl=     0 DoSepK=T KAlg= 1 I1Cent= 0 FoldK=F
 LinEq1:  Iter= 12 NonCon=     1 RMS=2.29D-08 Max=2.32D-07
 FoFJK:  IHMeth= 1 ICntrl=     0 DoSepK=T KAlg= 1 I1Cent= 0 FoldK=F
[...]
       9 -> 13         0.26511
      10 -> 13         0.14692
      11 -> 15         0.35397
      11 -> 16        -0.18785
      11 -> 17        -0.35443
      12 -> 18        -0.10059
      12 -> 19        -0.27422
 
 Excited state symmetry could not be determined.
 Excited State  13:      Singlet-?Sym    8.8545 eV  140.02 nm  f=0.0279  <S**2>=0.000
      11 -> 15        -0.15908
      11 -> 16         0.22972
      11 -> 17        -0.39645
      12 -> 14        -0.15455
      12 -> 17         0.11597
      12 -> 18         0.39740
      12 -> 20        -0.17380
 
 Excited state symmetry could not be determined.
 Excited State  14:      Singlet-?Sym    9.1001 eV  136.24 nm  f=0.0116  <S**2>=0.000
      11 -> 16        -0.37442
      11 -> 17        -0.19383
      12 -> 18        -0.11271
      12 -> 19         0.51214
 
 Excited state symmetry could not be determined.
 Excited State  15:      Singlet-?Sym    9.2330 eV  134.28 nm  f=0.0486  <S**2>=0.000
      11 -> 17         0.13519
      12 -> 14        -0.11717
      12 -> 18        -0.14611
      12 -> 20        -0.61911
      12 -> 21         0.11431
 
 Excited state symmetry could not be determined.
 Excited State  16:      Singlet-?Sym    9.5952 eV  129.21 nm  f=0.0114  <S**2>=0.000
       7 -> 13         0.24033
       8 -> 13         0.62469
      12 -> 21        -0.14778
 
 Excited state symmetry could not be determined.
 Excited State  17:      Singlet-?Sym    9.7191 eV  127.57 nm  f=0.0307  <S**2>=0.000
       8 -> 13         0.10364
      10 -> 14        -0.11086
      12 -> 15         0.10500
      12 -> 21         0.43851
      12 -> 22         0.44857
 
 Excited state symmetry could not be determined.
 Excited State  18:      Singlet-?Sym    9.7858 eV  126.70 nm  f=0.0302  <S**2>=0.000
      10 -> 14        -0.29160
      10 -> 17         0.10978
      11 -> 18         0.10495
      11 -> 19         0.10749
      12 -> 21         0.36664
      12 -> 22        -0.39879
      12 -> 25        -0.12636
 
 Excited state symmetry could not be determined.
 Excited State  19:      Singlet-?Sym    9.8695 eV  125.62 nm  f=0.0166  <S**2>=0.000
       8 -> 13         0.11503
      10 -> 14         0.49374
      10 -> 15        -0.13446
      10 -> 17        -0.13375
      10 -> 20        -0.11288
      11 -> 18        -0.19818
      12 -> 21         0.29990
      12 -> 22        -0.15945
 
 Excited state symmetry could not be determined.
 Excited State  20:      Singlet-?Sym    9.9888 eV  124.12 nm  f=0.0235  <S**2>=0.000
      10 -> 14         0.21972
      11 -> 18         0.59336
      11 -> 22         0.13686
 SavETr:  write IOETrn=   770 NScale= 10 NData=  16 NLR=1 LETran=     370.
 FoFJK:  IHMeth= 1 ICntrl=     0 DoSepK=T KAlg= 1 I1Cent= 0 FoldK=F
 FoFJK:  IHMeth= 1 ICntrl=     0 DoSepK=T KAlg= 1 I1Cent= 0 FoldK=F
          IDoAtm=111111
 NEqPCM:  Using equilibrium solvation (IEInf=0, Eps=  78.3553, EpsInf=   1.7778)
          Differentiating once with respect to electric field.
                with respect to dipole field.
          Differentiating once with respect to nuclear coordinates.
          There are     1 degrees of freedom in the 1st order CPHF.  IDoFFX=0.
 FoFJK:  IHMeth= 1 ICntrl=     0 DoSepK=T KAlg= 1 I1Cent= 0 FoldK=F
 LinEq1:  Iter=  0 NonCon=     1 RMS=1.92D-02 Max=2.18D-01
 AX will form     1 AO Fock derivatives at one time.
 FoFJK:  IHMeth= 1 ICntrl=     0 DoSepK=T KAlg= 1 I1Cent= 0 FoldK=F
 LinEq1:  Iter=  1 NonCon=     1 RMS=7.79D-03 Max=9.45D-02
 FoFJK:  IHMeth= 1 ICntrl=     0 DoSepK=T KAlg= 1 I1Cent= 0 FoldK=F
 LinEq1:  Iter=  2 NonCon=     1 RMS=6.50D-03 Max=1.11D-01
 FoFJK:  IHMeth= 1 ICntrl=     0 DoSepK=T KAlg= 1 I1Cent= 0 FoldK=F
 LinEq1:  Iter=  3 NonCon=     1 RMS=3.61D-03 Max=5.15D-02
 FoFJK:  IHMeth= 1 ICntrl=     0 DoSepK=T KAlg= 1 I1Cent= 0 FoldK=F
 LinEq1:  Iter=  4 NonCon=     1 RMS=1.99D-03 Max=2.70D-02
 FoFJK:  IHMeth= 1 ICntrl=     0 DoSepK=T KAlg= 1 I1Cent= 0 FoldK=F
 LinEq1:  Iter=  5 NonCon=     1 RMS=6.66D-04 Max=6.46D-03
 FoFJK:  IHMeth= 1 ICntrl=     0 DoSepK=T KAlg= 1 I1Cent= 0 FoldK=F
 LinEq1:  Iter=  6 NonCon=     1 RMS=1.45D-04 Max=1.54D-03
 FoFJK:  IHMeth= 1 ICntrl=     0 DoSepK=T KAlg= 1 I1Cent= 0 FoldK=F
 LinEq1:  Iter=  7 NonCon=     1 RMS=3.53D-05 Max=3.48D-04
 FoFJK:  IHMeth= 1 ICntrl=     0 DoSepK=T KAlg= 1 I1Cent= 0 FoldK=F
 LinEq1:  Iter=  8 NonCon=     1 RMS=6.12D-06 Max=6.18D-05
 FoFJK:  IHMeth= 1 ICntrl=     0 DoSepK=T KAlg= 1 I1Cent= 0 FoldK=F
 LinEq1:  Iter=  9 NonCon=     1 RMS=1.15D-06 Max=1.85D-05
 FoFJK:  IHMeth= 1 ICntrl=     0 DoSepK=T KAlg= 1 I1Cent= 0 FoldK=F
 LinEq1:  Iter= 10 NonCon=     1 RMS=3.13D-07 Max=5.28D-06
 FoFJK:  IHMeth= 1 ICntrl=     0 DoSepK=T KAlg= 1 I1Cent= 0 FoldK=F
 LinEq1:  Iter= 11 NonCon=     1 RMS=6.50D-08 Max=7.82D-07
 FoFJK:  IHMeth= 1 ICntrl=     0 DoSepK=T KAlg= 1 I1Cent= 0 FoldK=F
 LinEq1:  Iter= 12 NonCon=     1 RMS=1.36D-08 Max=1.13D-07
 FoFJK:  IHMeth= 1 ICntrl=     0 DoSepK=T KAlg= 1 I1Cent= 0 FoldK=F
 LinEq1:  Iter= 13 NonCon=     1 RMS=2.63D-09 Max=1.86D-08
 FoFJK:  IHMeth= 1 ICntrl=     0 DoSepK=T KAlg= 1 I1Cent= 0 FoldK=F
 LinEq1:  Iter= 14 NonCon=     1 RMS=3.56D-10 Max=3.34D-09
 FoFJK:  IHMeth= 1 ICntrl=     0 DoSepK=T KAlg= 1 I1Cent= 0 FoldK=F
 LinEq1:  Iter= 15 NonCon=     0 RMS=4.72D-11 Max=3.43D-10
 Linear equations converged to 1.000D-10 1.000D-09 after    15 iterations.
 FoFJK:  IHMeth= 1 ICntrl=     0 DoSepK=T KAlg= 1 I1Cent= 0 FoldK=F
 End of Minotr Frequency-dependent properties file   721 does not exist.
 End of Minotr Frequency-dependent properties file   722 does not exist.
 D1PCM: PCM CHGder 1st derivatives, ID1Alg=3 FixD1E=F DoIter=F DoCFld=F I1PDM=6.
 Calling FoFJK, ICntrl=      5127 FMM=F ISym2X=0 I1Cent= 0 IOpClX= 0 NMat=1 NMatS=1 NMatT=0.
 FoFJK:  IHMeth= 1 ICntrl=  5127 DoSepK=T KAlg= 1 I1Cent= 0 FoldK=F
 -------------------------------------------------------------------
 Center     Atomic                   Forces (Hartrees/Bohr)
 Number     Number              X              Y              Z
 -------------------------------------------------------------------
      1        6          -0.000241377    0.000009522   -0.000056691
      2        7           0.000105650    0.000028091    0.000030149
      3        8           0.000080358   -0.000014604    0.000047204
      4        1           0.000002971   -0.000001342    0.000004381
      5        1          -0.000005093   -0.000021927   -0.000040201
      6        1           0.000057490    0.000000261    0.000015160
 -------------------------------------------------------------------
 Cartesian Forces:  Max     0.000241377 RMS     0.000070322

 GradGradGradGradGradGradGradGradGradGradGradGradGradGradGradGradGradGrad
 Berny optimization.
 Using GEDIIS/GDIIS optimizer.
 Internal  Forces:  Max     0.000093651 RMS     0.000042581
 Search for a local minimum.
 Step number  10 out of a maximum of  100
 All quantities printed in internal units (Hartrees-Bohrs-Radians)
 Mixed Optimization -- En-DIIS/RFO-DIIS
 Swaping is turned off.
 Update second derivatives using D2CorX and points    4    5    6    7    8
                                                      9   10
 DE= -7.01D-07 DEPred=-4.90D-07 R= 1.43D+00
 Trust test= 1.43D+00 RLast= 6.98D-03 DXMaxT set to 1.14D+00
 The second derivative matrix:
                          R1        R2        R3        R4        R5
           R1           0.36125
           R2           0.01780   0.72409
           R3           0.01545   0.00569   0.31926
           R4           0.00116  -0.00208   0.00173   0.44108
           R5           0.00128   0.00565  -0.00613  -0.00305   0.44179
           A1           0.02649   0.01342  -0.01855   0.00317   0.00082
           A2          -0.05634  -0.00543   0.01231  -0.00189  -0.00314
           A3          -0.03622  -0.00270  -0.01541  -0.00066   0.02180
           A4           0.02330  -0.01800  -0.00595  -0.00471  -0.00669
           A5           0.02197  -0.03012  -0.00051   0.00641   0.00070
           A6          -0.00368  -0.03016  -0.00114  -0.00228  -0.00167
           D1           0.03068   0.01094   0.00629   0.00194   0.00120
           D2           0.00673  -0.00817   0.01159  -0.00273  -0.00385
           D3          -0.01204   0.00117  -0.00286   0.00101   0.00352
           D4          -0.03598  -0.01794   0.00244  -0.00366  -0.00152
                          A1        A2        A3        A4        A5
           A1           0.20700
           A2           0.01430   0.13809
           A3          -0.05539  -0.04039   0.13717
           A4           0.01436   0.00055  -0.00630   0.10909
           A5          -0.00446   0.00535  -0.02543  -0.04858   0.12472
           A6           0.00892   0.00507  -0.01683  -0.03256  -0.03729
           D1          -0.00641   0.00749  -0.00635   0.00041  -0.00481
           D2           0.01784   0.00815  -0.01301   0.00589  -0.00653
           D3          -0.00846   0.00043  -0.00368  -0.00278  -0.00353
           D4           0.01579   0.00110  -0.01033   0.00269  -0.00525
                          A6        D1        D2        D3        D4
           A6           0.14451
           D1          -0.01077   0.02355
           D2           0.00608   0.00717   0.02454
           D3          -0.00355  -0.00007  -0.00152   0.01226
           D4           0.01330  -0.00912   0.00851   0.00347   0.02845
     Eigenvalues ---    0.01034   0.02707   0.03578   0.13137   0.15081
     Eigenvalues ---    0.17497   0.23820   0.32192   0.38407   0.43938
     Eigenvalues ---    0.44571   0.726151000.000001000.000001000.00000
 En-DIIS/RFO-DIIS IScMMF=        0 using points:    10    9    8    7
 RFO step:  Lambda=-5.30968296D-08.
 DIIS coeffs:      1.23617     -0.24163      0.01725     -0.01179
 Iteration  1 RMS(Cart)=  0.00037133 RMS(Int)=  0.00000139
 Iteration  2 RMS(Cart)=  0.00000028 RMS(Int)=  0.00000136
 Variable       Old X    -DE/DX   Delta X   Delta X   Delta X     New X
                                  (DIIS)     (GDIIS)  (Total)
    R1        2.68089   0.00009  -0.00018   0.00017  -0.00001   2.68088
    R2        2.41397  -0.00009  -0.00003  -0.00010  -0.00013   2.41384
    R3        2.14066   0.00001   0.00014   0.00000   0.00013   2.14079
    R4        1.92151   0.00000   0.00000  -0.00001  -0.00002   1.92150
    R5        1.93490   0.00001  -0.00002   0.00000  -0.00002   1.93488
    A1        2.26738  -0.00001   0.00028  -0.00004   0.00024   2.26762
    A2        1.83333  -0.00007  -0.00005  -0.00054  -0.00059   1.83274
    A3        1.92087   0.00006   0.00000   0.00031   0.00032   1.92119
    A4        2.01144   0.00001   0.00036   0.00014   0.00050   2.01194
    A5        2.05321   0.00002   0.00043   0.00010   0.00053   2.05374
    A6        1.94004   0.00000   0.00032   0.00019   0.00051   1.94055
    D1       -2.38799   0.00000   0.00084   0.00022   0.00106  -2.38693
    D2        1.55265  -0.00003  -0.00062  -0.00037  -0.00098   1.55167
    D3        1.56598   0.00001   0.00058   0.00048   0.00105   1.56703
    D4       -0.77657  -0.00003  -0.00088  -0.00011  -0.00099  -0.77755
         Item               Value     Threshold  Converged?
 Maximum Force            0.000094     0.000450     YES
 RMS     Force            0.000043     0.000300     YES
 Maximum Displacement     0.000864     0.001800     YES
 RMS     Displacement     0.000371     0.001200     YES
 Predicted change in Energy=-7.542808D-08
 Optimization completed.
    -- Stationary point found.
                           ----------------------------
                           !   Optimized Parameters   !
                           ! (Angstroms and Degrees)  !
 --------------------------                            --------------------------
 ! Name  Definition              Value          Derivative Info.                !
 --------------------------------------------------------------------------------
 ! R1    R(1,2)                  1.4187         -DE/DX =    0.0001              !
 ! R2    R(1,3)                  1.2774         -DE/DX =   -0.0001              !
 ! R3    R(1,6)                  1.1328         -DE/DX =    0.0                 !
 ! R4    R(2,4)                  1.0168         -DE/DX =    0.0                 !
 ! R5    R(2,5)                  1.0239         -DE/DX =    0.0                 !
 ! A1    A(2,1,3)              129.9111         -DE/DX =    0.0                 !
 ! A2    A(2,1,6)              105.0418         -DE/DX =   -0.0001              !
 ! A3    A(3,1,6)              110.0577         -DE/DX =    0.0001              !
 ! A4    A(1,2,4)              115.2472         -DE/DX =    0.0                 !
 ! A5    A(1,2,5)              117.6403         -DE/DX =    0.0                 !
 ! A6    A(4,2,5)              111.1562         -DE/DX =    0.0                 !
 ! D1    D(3,1,2,4)           -136.8218         -DE/DX =    0.0                 !
 ! D2    D(3,1,2,5)             88.9605         -DE/DX =    0.0                 !
 ! D3    D(6,1,2,4)             89.7238         -DE/DX =    0.0                 !
 ! D4    D(6,1,2,5)            -44.4939         -DE/DX =    0.0                 !
 --------------------------------------------------------------------------------
 GradGradGradGradGradGradGradGradGradGradGradGradGradGradGradGradGradGrad

                          Input orientation:                          
 ---------------------------------------------------------------------
 Center     Atomic      Atomic             Coordinates (Angstroms)
 Number     Number       Type             X           Y           Z
 ---------------------------------------------------------------------
      1          6           0       -0.239542    0.190148    0.131589
      2          7           0        1.058802   -0.329763   -0.106347
      3          8           0       -1.292056    0.128222   -0.589641
      4          1           0        1.499638   -0.778042    0.692800
      5          1           0        1.723475    0.264394   -0.609908
      6          1           0       -0.070546    1.254127    0.481724
 ---------------------------------------------------------------------
                    Distance matrix (angstroms):
                    1          2          3          4          5
     1  C    0.000000
     2  N    1.418668   0.000000
     3  O    1.277416   2.443329   0.000000
     4  H    2.068114   1.016822   3.203049   0.000000
     5  H    2.099706   1.023907   3.018672   1.683397   0.000000
     6  H    1.132788   2.032231   1.976759   2.576770   2.321581
                    6
     6  H    0.000000
 Symmetry turned off by external request.
 Stoichiometry    CH3NO
 Framework group  C1[X(CH3NO)]
 Deg. of freedom    12
 Full point group                 C1      NOp   1
 Rotational constants (GHZ):     80.4713406      9.5443957      9.0736353

 **********************************************************************

            Population analysis using the SCF density.

 **********************************************************************

 Alpha  occ. eigenvalues --  -19.25749 -14.41778 -10.40785  -1.13183  -0.98538
 Alpha  occ. eigenvalues --   -0.69428  -0.59433  -0.57385  -0.53905  -0.45024
 Alpha  occ. eigenvalues --   -0.37122  -0.32515
 Alpha virt. eigenvalues --   -0.04176   0.01637   0.03768   0.04423   0.06074
 Alpha virt. eigenvalues --    0.09126   0.10246   0.12229   0.13751   0.14420
 Alpha virt. eigenvalues --    0.16980   0.17774   0.18812   0.21208   0.23395
 Alpha virt. eigenvalues --    0.24932   0.25791   0.27643   0.29173   0.31182
 Alpha virt. eigenvalues --    0.34180   0.35908   0.39701   0.41626   0.43756
 Alpha virt. eigenvalues --    0.46869   0.48110   0.50072   0.51512   0.55571
 Alpha virt. eigenvalues --    0.56423   0.57797   0.59836   0.63273   0.64949
 Alpha virt. eigenvalues --    0.66806   0.72420   0.73216   0.77049   0.77821
 Alpha virt. eigenvalues --    0.82355   0.89453   0.92888   0.98306   1.04447
 Alpha virt. eigenvalues --    1.08855   1.09045   1.12850   1.19377   1.24363
 Alpha virt. eigenvalues --    1.25152   1.34931   1.43353   1.45754   1.52013
 Alpha virt. eigenvalues --    1.59331   1.65337   1.70834   1.73905   1.79520
 Alpha virt. eigenvalues --    1.90127   1.93336   1.94462   2.02060   2.08953
 Alpha virt. eigenvalues --    2.09232   2.11267   2.14415   2.18776   2.23670
 Alpha virt. eigenvalues --    2.33835   2.40851   2.54059   2.61189   2.68821
 Alpha virt. eigenvalues --    2.75274   2.91421   3.03460   3.21449   3.38058
 Alpha virt. eigenvalues --    3.39277   3.44382   3.51986   3.66584
          Condensed to atoms (all electrons):
              1          2          3          4          5          6
     1  C    4.687669   0.270405   0.269819  -0.153729  -0.068311   0.176722
     2  N    0.270405   6.160378  -0.018244   0.414624   0.345505  -0.048786
     3  O    0.269819  -0.018244   8.248459   0.006250   0.004002  -0.052121
     4  H   -0.153729   0.414624   0.006250   0.871875  -0.135802  -0.005387
     5  H   -0.068311   0.345505   0.004002  -0.135802   0.853987   0.006085
     6  H    0.176722  -0.048786  -0.052121  -0.005387   0.006085   1.155568
 Mulliken atomic charges:
              1
     1  C    0.817425
     2  N   -0.123882
     3  O   -0.458165
     4  H    0.002169
     5  H   -0.005466
     6  H   -0.232081
 Sum of Mulliken atomic charges =   0.00000
 Mulliken charges with hydrogens summed into heavy atoms:
              1
     1  C    0.585344
     2  N   -0.127179
     3  O   -0.458165
 Sum of Mulliken charges with hydrogens summed into heavy atoms =   0.00000
 Electronic spatial extent (au):  <R**2>=            163.4097
 Charge=              0.0000 electrons
 Dipole moment (field-independent basis, Debye):
    X=              3.9594    Y=              1.1459    Z=              2.2975  Tot=              4.7189
 Quadrupole moment (field-independent basis, Debye-Ang):
   XX=            -18.5649   YY=            -18.4864   ZZ=            -18.5790
   XY=              1.0111   XZ=             -1.3452   YZ=             -2.3340
 Traceless Quadrupole moment (field-independent basis, Debye-Ang):
   XX=             -0.0215   YY=              0.0570   ZZ=             -0.0356
   XY=              1.0111   XZ=             -1.3452   YZ=             -2.3340
 Octapole moment (field-independent basis, Debye-Ang**2):
  XXX=             17.0500  YYY=              1.4269  ZZZ=             10.5723  XYY=              1.4499
  XXY=             -0.5974  XXZ=              5.2217  XZZ=              3.4824  YZZ=              0.0128
  YYZ=              4.8864  XYZ=             -2.6170
 Hexadecapole moment (field-independent basis, Debye-Ang**3):
 XXXX=           -126.4101 YYYY=            -35.3922 ZZZZ=            -36.7503 XXXY=             12.9651
 XXXZ=            -14.8499 YYYX=             12.4986 YYYZ=             -2.5630 ZZZX=            -10.5873
 ZZZY=             -3.4490 XXYY=            -28.7019 XXZZ=            -27.1497 YYZZ=            -11.9501
 XXYZ=             -4.7987 YYXZ=             -2.0080 ZZXY=              3.5117
 N-N= 6.822627018988D+01 E-N=-5.340862849485D+02  KE= 1.684476103262D+02
 1\1\GINC-CLODOMIRA\FOpt\RTD-CAM-B3LYP-FC\Aug-CC-pVDZ\C1H3N1O1\DIEGOA\2
 8-Oct-2019\0\\# cam-b3lyp/aug-cc-pvdz opt(maxCycle=100) nosymm td(root
 =2,nstates=20) SCRF=PCM int(grid=ultrafine)\\Title\\0,1\C,-0.239542204
 ,0.1901475262,0.1315885927\N,1.0588019907,-0.3297628358,-0.1063471856\
 O,-1.2920563802,0.1282215179,-0.5896408209\H,1.4996375286,-0.778042494
 4,0.6927999941\H,1.7234745988,0.2643940054,-0.6099076837\H,-0.07054553
 4,1.2541272807,0.4817241034\\Version=EM64L-G09RevA.01\HF=-169.78797\RM
 SD=3.436e-09\RMSF=7.032e-05\Dipole=2.1837174,0.2453586,0.5786003\PG=C0
 1 [X(C1H3N1O1)]\\@


 JUST WHEN YOU THINK YOU'VE GOT THE WORLD ON A STRING,
 YOU FIND OUT IT'S YOUR LEASH.
 Job cpu time:  0 days  2 hours  6 minutes 53.0 seconds.
 File lengths (MBytes):  RWF=     59 Int=      0 D2E=      0 Chk=      9 Scr=      1
 Normal termination of Gaussian 09 at Mon Oct 28 15:21:17 2019.
