 Entering Gaussian System, Link 0=g09
 Input=td4-opt.com
 Output=td4-opt.log
 Initial command:
 /home/diegoa/progs/g09/l1.exe /home/diegoa/g09scratch/Gau-1292.inp -scrdir=/home/diegoa/g09scratch/
 Default is to use a total of   4 processors:
                                4 via shared-memory
                                1 via Linda
 Entering Link 1 = /home/diegoa/progs/g09/l1.exe PID=      1294.
  
 Copyright (c) 1988,1990,1992,1993,1995,1998,2003,2009, Gaussian, Inc.
                  All Rights Reserved.
  
 This is part of the Gaussian(R) 09 program.  It is based on
 the Gaussian(R) 03 system (copyright 2003, Gaussian, Inc.),
 the Gaussian(R) 98 system (copyright 1998, Gaussian, Inc.),
 the Gaussian(R) 94 system (copyright 1995, Gaussian, Inc.),
 the Gaussian 92(TM) system (copyright 1992, Gaussian, Inc.),
 the Gaussian 90(TM) system (copyright 1990, Gaussian, Inc.),
 the Gaussian 88(TM) system (copyright 1988, Gaussian, Inc.),
 the Gaussian 86(TM) system (copyright 1986, Carnegie Mellon
 University), and the Gaussian 82(TM) system (copyright 1983,
 Carnegie Mellon University). Gaussian is a federally registered
 trademark of Gaussian, Inc.
  
 This software contains proprietary and confidential information,
 including trade secrets, belonging to Gaussian, Inc.
  
 This software is provided under written license and may be
 used, copied, transmitted, or stored only in accord with that
 written license.
  
 The following legend is applicable only to US Government
 contracts under FAR:
  
                    RESTRICTED RIGHTS LEGEND
  
 Use, reproduction and disclosure by the US Government is
 subject to restrictions as set forth in subparagraphs (a)
 and (c) of the Commercial Computer Software - Restricted
 Rights clause in FAR 52.227-19.
  
 Gaussian, Inc.
 340 Quinnipiac St., Bldg. 40, Wallingford CT 06492
  
  
 ---------------------------------------------------------------
 Warning -- This program may not be used in any manner that
 competes with the business of Gaussian, Inc. or will provide
 assistance to any competitor of Gaussian, Inc.  The licensee
 of this program is prohibited from giving any competitor of
 Gaussian, Inc. access to this program.  By using this program,
 the user acknowledges that Gaussian, Inc. is engaged in the
 business of creating and licensing software in the field of
 computational chemistry and represents and warrants to the
 licensee that it is not a competitor of Gaussian, Inc. and that
 it will not use this program in any manner prohibited above.
 ---------------------------------------------------------------
  

 Cite this work as:
 Gaussian 09, Revision A.01,
 M. J. Frisch, G. W. Trucks, H. B. Schlegel, G. E. Scuseria, 
 M. A. Robb, J. R. Cheeseman, G. Scalmani, V. Barone, B. Mennucci, 
 G. A. Petersson, H. Nakatsuji, M. Caricato, X. Li, H. P. Hratchian, 
 A. F. Izmaylov, J. Bloino, G. Zheng, J. L. Sonnenberg, M. Hada, 
 M. Ehara, K. Toyota, R. Fukuda, J. Hasegawa, M. Ishida, T. Nakajima, 
 Y. Honda, O. Kitao, H. Nakai, T. Vreven, J. A. Montgomery, Jr., 
 J. E. Peralta, F. Ogliaro, M. Bearpark, J. J. Heyd, E. Brothers, 
 K. N. Kudin, V. N. Staroverov, R. Kobayashi, J. Normand, 
 K. Raghavachari, A. Rendell, J. C. Burant, S. S. Iyengar, J. Tomasi, 
 M. Cossi, N. Rega, J. M. Millam, M. Klene, J. E. Knox, J. B. Cross, 
 V. Bakken, C. Adamo, J. Jaramillo, R. Gomperts, R. E. Stratmann, 
 O. Yazyev, A. J. Austin, R. Cammi, C. Pomelli, J. W. Ochterski, 
 R. L. Martin, K. Morokuma, V. G. Zakrzewski, G. A. Voth, 
 P. Salvador, J. J. Dannenberg, S. Dapprich, A. D. Daniels, 
 O. Farkas, J. B. Foresman, J. V. Ortiz, J. Cioslowski, 
 and D. J. Fox, Gaussian, Inc., Wallingford CT, 2009.
 
 ******************************************
 Gaussian 09:  EM64L-G09RevA.01  8-May-2009
                28-Oct-2019 
 ******************************************
 %chk=td4-opt.chk
 %NProcShared=4
 Will use up to    4 processors via shared memory.
 Default route:  MP2=Direct MaxDisk=1000GB DenFit
 ----------------------------------------------------------------------
 # cam-b3lyp/aug-cc-pvdz opt nosymm td(root=4,nstates=20) SCRF=PCM int(
 grid=ultrafine)
 ----------------------------------------------------------------------
 1/14=-1,18=20,19=15,26=3,38=1/1,3;
 2/9=110,12=2,15=1,17=6,18=5,40=1/2;
 3/5=16,7=10,11=2,16=1,25=1,30=1,70=2201,71=1,72=1,74=-40,75=-5,82=47/1,2,8,3;
 4//1;
 5/5=2,38=5/2;
 8/6=1,10=1,107=4,108=20/1;
 9/8=4,15=2,41=20,42=1/14;
 10/5=4,31=1/2;
 6/7=2,8=2,9=2,10=2/1;
 7/12=6,13=5,14=4,30=1/1,2,3,16;
 1/14=-1,18=20,19=15/3(2);
 2/9=110,15=1/2;
 99//99;
 2/9=110,15=1/2;
 3/5=16,7=10,11=2,16=1,25=1,30=1,70=2205,71=1,74=-40,75=-5,82=47/1,2,8,3;
 4/5=5,16=3/1;
 5/5=2,38=5/2;
 8/6=1,10=1,107=4,108=20/1;
 9/8=4,15=2,41=20,42=1,49=4/14;
 10/5=4,31=1/2;
 7/12=6,13=5,14=4,30=1/1,2,3,16;
 1/14=-1,18=20,19=15/3(-8);
 2/9=110,15=1/2;
 6/7=2,8=2,9=2,10=2/1;
 99//99;
 -----
 Title
 -----
 Symbolic Z-matrix:
 Charge =  0 Multiplicity = 1
 6                    -0.14841   0.38941  -0.00001 
 7                     1.07589  -0.16092   0.00006 
 8                    -1.19901  -0.24437  -0.00008 
 1                     1.18201  -1.16665   0.00009 
 1                     1.90298   0.41696   0.00015 
 1                    -0.13369   1.49466  -0.00001 
 

 GradGradGradGradGradGradGradGradGradGradGradGradGradGradGradGradGradGrad
 Berny optimization.
 Initialization pass.
                           ----------------------------
                           !    Initial Parameters    !
                           ! (Angstroms and Degrees)  !
 --------------------------                            --------------------------
 ! Name  Definition              Value          Derivative Info.                !
 --------------------------------------------------------------------------------
 ! R1    R(1,2)                  1.3423         estimate D2E/DX2                !
 ! R2    R(1,3)                  1.227          estimate D2E/DX2                !
 ! R3    R(1,6)                  1.1053         estimate D2E/DX2                !
 ! R4    R(2,4)                  1.0113         estimate D2E/DX2                !
 ! R5    R(2,5)                  1.009          estimate D2E/DX2                !
 ! A1    A(2,1,3)              124.6949         estimate D2E/DX2                !
 ! A2    A(2,1,6)              113.4417         estimate D2E/DX2                !
 ! A3    A(3,1,6)              121.8634         estimate D2E/DX2                !
 ! A4    A(1,2,4)              120.2276         estimate D2E/DX2                !
 ! A5    A(1,2,5)              120.8539         estimate D2E/DX2                !
 ! A6    A(4,2,5)              118.9185         estimate D2E/DX2                !
 ! D1    D(3,1,2,4)             -0.0023         estimate D2E/DX2                !
 ! D2    D(3,1,2,5)           -179.9974         estimate D2E/DX2                !
 ! D3    D(6,1,2,4)            179.9982         estimate D2E/DX2                !
 ! D4    D(6,1,2,5)              0.0031         estimate D2E/DX2                !
 --------------------------------------------------------------------------------
 Trust Radius=3.00D-01 FncErr=1.00D-07 GrdErr=1.00D-06
 Number of steps in this run=  25 maximum allowed number of steps= 100.
 GradGradGradGradGradGradGradGradGradGradGradGradGradGradGradGradGradGrad

                          Input orientation:                          
 ---------------------------------------------------------------------
 Center     Atomic      Atomic             Coordinates (Angstroms)
 Number     Number       Type             X           Y           Z
 ---------------------------------------------------------------------
      1          6           0       -0.148406    0.389411   -0.000008
      2          7           0        1.075890   -0.160923    0.000060
      3          8           0       -1.199011   -0.244372   -0.000076
      4          1           0        1.182007   -1.166648    0.000092
      5          1           0        1.902982    0.416959    0.000154
      6          1           0       -0.133692    1.494659   -0.000005
 ---------------------------------------------------------------------
                    Distance matrix (angstroms):
                    1          2          3          4          5
     1  C    0.000000
     2  N    1.342300   0.000000
     3  O    1.226969   2.276431   0.000000
     4  H    2.047271   1.011308   2.553398   0.000000
     5  H    2.051573   1.008974   3.171706   1.740005   0.000000
     6  H    1.105346   2.050376   2.039395   2.968774   2.304231
                    6
     6  H    0.000000
 Symmetry turned off by external request.
 Stoichiometry    CH3NO
 Framework group  C1[X(CH3NO)]
 Deg. of freedom    12
 Full point group                 C1      NOp   1
 Rotational constants (GHZ):     73.1415518     11.3903967      9.8555789
 Standard basis: Aug-CC-pVDZ (5D, 7F)
 Integral buffers will be    131072 words long.
 Raffenetti 2 integral format.
 Two-electron integral symmetry is turned off.
    96 basis functions,   162 primitive gaussians,   102 cartesian basis functions
    12 alpha electrons       12 beta electrons
       nuclear repulsion energy        71.1695258840 Hartrees.
 NAtoms=    6 NActive=    6 NUniq=    6 SFac= 7.50D-01 NAtFMM=   80 NAOKFM=F Big=F
 Standard density basis: Auto (5D, 7F)
   327 Density fitting functions
 ------------------------------------------------------------------------------
 Polarizable Continuum Model (PCM)
 =================================
 Model                : PCM.
 Atomic radii         : UFF (Universal Force Field).
 Polarization charges : Total charges.
 Charge compensation  : None.
 Solution method      : Matrix inversion.
 Cavity type          : Scaled VdW (van der Waals Surface) (Alpha=1.100).
 Cavity algorithm     : GePol (No added spheres)
                        Default sphere list used, NSphG=    6.
                        Lebedev-Laikov grids with approx.  5.0 points / Ang**2.
                        Smoothing algorithm: Karplus/York (Gamma=1.0000).
                        Polarization charges: spherical gaussians, with
                                              point-specific exponents (IZeta= 3).
                        Self-potential: point-specific (ISelfS= 7).
                        Self-field    : sphere-specific E.n sum rule (ISelfD= 2).
 1st derivatives      : Analytical E(r).r(x)/FMM algorithm (CHGder, D1EAlg=3).
                        Cavity 1st derivative terms included.
 Solvent              : Water, Eps=  78.355300 Eps(inf)=   1.777849
 ------------------------------------------------------------------------------
 Spheres list:
 ISph  on   Nord    Re0     Alpha      Xe            Ye            Ze
    1   C      1    1.926   1.100     -0.148406      0.389411     -0.000008
    2   N      2    1.830   1.100      1.075890     -0.160923      0.000060
    3   O      3    1.750   1.100     -1.199011     -0.244372     -0.000076
    4   H      4    1.443   1.100      1.182007     -1.166648      0.000092
    5   H      5    1.443   1.100      1.902982      0.416959      0.000154
    6   H      6    1.443   1.100     -0.133692      1.494659     -0.000005
 ------------------------------------------------------------------------------
 One-electron integrals computed using PRISM.
 NBasis=    96 RedAO= T  NBF=    96
 NBsUse=    96 1.00D-06 NBFU=    96
 Harris functional with IExCor=20419 diagonalized for initial guess.
 ExpMin= 2.97D-02 ExpMax= 1.17D+04 ExpMxC= 4.01D+02 IAcc=3 IRadAn=         5 AccDes= 0.00D+00
 HarFok:  IExCor=20419 AccDes= 0.00D+00 IRadAn=         5 IDoV= 1
 ScaDFX=  1.000000  1.000000  1.000000  1.000000
 FoFCou: FMM=F IPFlag=           0 FMFlag=      100000 FMFlg1=           0
         NFxFlg=           0 DoJE=T BraDBF=F KetDBF=T FulRan=T
         Omega=  0.000000  0.000000  1.000000  0.000000  0.000000 ICntrl=     500 IOpCl=  0
         NMat0=    1 NMatS0=    1 NMatT0=    0 NMatD0=    1 NMtDS0=    0 NMtDT0=    0
         I1Cent=           4 NGrid=           0.
 Symmetry not used in FoFCou.
 Requested convergence on RMS density matrix=1.00D-08 within 128 cycles.
 Requested convergence on MAX density matrix=1.00D-06.
 Requested convergence on             energy=1.00D-06.
 No special actions if energy rises.
 FoFJK:  IHMeth= 1 ICntrl=     0 DoSepK=T KAlg= 1 I1Cent= 0 FoldK=F
 FoFJK:  IHMeth= 1 ICntrl=     0 DoSepK=T KAlg= 1 I1Cent= 0 FoldK=F
 FoFJK:  IHMeth= 1 ICntrl=     0 DoSepK=T KAlg= 1 I1Cent= 0 FoldK=F
 FoFJK:  IHMeth= 1 ICntrl=     0 DoSepK=T KAlg= 1 I1Cent= 0 FoldK=F
 FoFJK:  IHMeth= 1 ICntrl=     0 DoSepK=T KAlg= 1 I1Cent= 0 FoldK=F
 FoFJK:  IHMeth= 1 ICntrl=     0 DoSepK=T KAlg= 1 I1Cent= 0 FoldK=F
 FoFJK:  IHMeth= 1 ICntrl=     0 DoSepK=T KAlg= 1 I1Cent= 0 FoldK=F
 FoFJK:  IHMeth= 1 ICntrl=     0 DoSepK=T KAlg= 1 I1Cent= 0 FoldK=F
 FoFJK:  IHMeth= 1 ICntrl=     0 DoSepK=T KAlg= 1 I1Cent= 0 FoldK=F
 FoFJK:  IHMeth= 1 ICntrl=     0 DoSepK=T KAlg= 1 I1Cent= 0 FoldK=F
 FoFJK:  IHMeth= 1 ICntrl=     0 DoSepK=T KAlg= 1 I1Cent= 0 FoldK=F
 Error on total polarization charges =  0.01050
 SCF Done:  E(RCAM-B3LYP) =  -169.864201704     A.U. after   11 cycles
             Convg  =    0.4600D-08             -V/T =  2.0064
 ExpMin= 2.97D-02 ExpMax= 1.17D+04 ExpMxC= 4.01D+02 IAcc=3 IRadAn=         5 AccDes= 0.00D+00
 HarFok:  IExCor=  205 AccDes= 0.00D+00 IRadAn=         5 IDoV=-2
 ScaDFX=  1.000000  1.000000  1.000000  1.000000
 Range of M.O.s used for correlation:     4    96
 NBasis=    96 NAE=    12 NBE=    12 NFC=     3 NFV=     0
 NROrb=     93 NOA=     9 NOB=     9 NVA=    84 NVB=    84

 **** Warning!!: The largest alpha MO coefficient is  0.18832976D+02

 NEqPCM:  Using equilibrium solvation (IEInf=0, Eps=  78.3553, EpsInf=   1.7778)
    80 initial guesses have been made.
 Convergence on wavefunction:    0.000001000000000
 Iteration     1 Dimension    80 NMult    80
 CISAX will form    80 AO SS matrices at one time.
 FoFJK:  IHMeth= 1 ICntrl=     0 DoSepK=T KAlg= 1 I1Cent= 0 FoldK=F
 FoFJK:  IHMeth= 1 ICntrl=     0 DoSepK=T KAlg= 1 I1Cent= 0 FoldK=F
 New state      1 was old state      6
 New state      2 was old state      1
 New state      3 was old state      2
 New state      4 was old state      3
 New state      6 was old state      4
 New state      8 was old state     11
 New state     10 was old state      8
 New state     11 was old state     10
 New state     13 was old state     14
 New state     14 was old state     13
 No map to state     17
 New state     20 was old state     17
 Iteration     2 Dimension   120 NMult   120
 FoFJK:  IHMeth= 1 ICntrl=     0 DoSepK=T KAlg= 1 I1Cent= 0 FoldK=F
 FoFJK:  IHMeth= 1 ICntrl=     0 DoSepK=T KAlg= 1 I1Cent= 0 FoldK=F
 New state      7 was old state      8
 New state      8 was old state      7
 New state     13 was old state     14
 New state     14 was old state     13
 New state     16 was old state     17
 New state     17 was old state     16
 New state     19 was old state     20
 New state     20 was old state     19
 Iteration     3 Dimension   160 NMult   160
 FoFJK:  IHMeth= 1 ICntrl=     0 DoSepK=T KAlg= 1 I1Cent= 0 FoldK=F
 FoFJK:  IHMeth= 1 ICntrl=     0 DoSepK=T KAlg= 1 I1Cent= 0 FoldK=F
 Iteration     4 Dimension   200 NMult   200
 FoFJK:  IHMeth= 1 ICntrl=     0 DoSepK=T KAlg= 1 I1Cent= 0 FoldK=F
 FoFJK:  IHMeth= 1 ICntrl=     0 DoSepK=T KAlg= 1 I1Cent= 0 FoldK=F
 Iteration     5 Dimension   240 NMult   240
 FoFJK:  IHMeth= 1 ICntrl=     0 DoSepK=T KAlg= 1 I1Cent= 0 FoldK=F
 FoFJK:  IHMeth= 1 ICntrl=     0 DoSepK=T KAlg= 1 I1Cent= 0 FoldK=F
 Iteration     6 Dimension   280 NMult   280
 FoFJK:  IHMeth= 1 ICntrl=     0 DoSepK=T KAlg= 1 I1Cent= 0 FoldK=F
 FoFJK:  IHMeth= 1 ICntrl=     0 DoSepK=T KAlg= 1 I1Cent= 0 FoldK=F
 Iteration     7 Dimension   306 NMult   306
 FoFJK:  IHMeth= 1 ICntrl=     0 DoSepK=T KAlg= 1 I1Cent= 0 FoldK=F
 FoFJK:  IHMeth= 1 ICntrl=     0 DoSepK=T KAlg= 1 I1Cent= 0 FoldK=F
 Iteration     8 Dimension   310 NMult   310
 FoFJK:  IHMeth= 1 ICntrl=     0 DoSepK=T KAlg= 1 I1Cent= 0 FoldK=F
 FoFJK:  IHMeth= 1 ICntrl=     0 DoSepK=T KAlg= 1 I1Cent= 0 FoldK=F
 ***********************************************************************
 Excited states from <AA,BB:AA,BB> singles matrix:
 ***********************************************************************
 
 Ground to excited state transition electric dipole moments (Au):
       state          X           Y           Z        Dip. S.      Osc.
         1         0.0000      0.0000      0.0822      0.0068      0.0010
         2         0.0464      0.1473      0.0001      0.0238      0.0041
         3        -0.0001      0.0000      0.2981      0.0889      0.0154
         4         1.3664      0.0327      0.0001      1.8682      0.3332
         5        -0.3274      0.8521      0.0000      0.8333      0.1562
         6         0.0000     -0.0001      0.0624      0.0039      0.0007
         7         0.7165      0.2569     -0.0001      0.5794      0.1134
         8        -0.0001     -0.0001     -0.4373      0.1912      0.0377
         9         0.0000      0.0000      0.1922      0.0369      0.0076
        10        -0.1655     -0.0543      0.0000      0.0303      0.0064
        11         0.1199     -0.1249      0.0000      0.0300      0.0066
        12         0.0000      0.0000      0.1840      0.0338      0.0076
        13        -0.0770     -0.0200     -0.0001      0.0063      0.0014
        14         0.0000      0.0000     -0.2236      0.0500      0.0115
        15         0.1673      0.0592      0.0000      0.0315      0.0077
        16         0.0000      0.0000     -0.0739      0.0055      0.0014
        17         0.0000      0.0000     -0.1805      0.0326      0.0082
        18        -0.0001     -0.0002     -0.1090      0.0119      0.0030
        19        -0.1834     -0.3992     -0.0001      0.1930      0.0497
        20        -0.0001     -0.0002      0.1933      0.0374      0.0096
 Ground to excited state transition velocity dipole moments (Au):
       state          X           Y           Z        Dip. S.      Osc.
         1         0.0000      0.0000     -0.0210      0.0004      0.0014
         2        -0.0100     -0.0389      0.0000      0.0016      0.0042
         3         0.0000      0.0000     -0.0748      0.0056      0.0144
         4        -0.3597     -0.0077      0.0000      0.1295      0.3227
         5         0.0919     -0.2362      0.0000      0.0642      0.1522
         6         0.0000      0.0000     -0.0185      0.0003      0.0008
         7        -0.2085     -0.0741      0.0000      0.0490      0.1112
         8         0.0000      0.0000      0.1255      0.0158      0.0356
         9         0.0000      0.0000     -0.0607      0.0037      0.0080
        10         0.0437      0.0149      0.0000      0.0021      0.0044
        11        -0.0375      0.0398      0.0000      0.0030      0.0060
        12         0.0000      0.0000     -0.0591      0.0035      0.0070
        13         0.0160      0.0060      0.0000      0.0003      0.0006
        14         0.0000      0.0000      0.0774      0.0060      0.0116
        15        -0.0606     -0.0149      0.0000      0.0039      0.0071
        16         0.0000      0.0000      0.0288      0.0008      0.0015
        17         0.0000      0.0000      0.0719      0.0052      0.0092
        18         0.0000      0.0001      0.0307      0.0009      0.0016
        19         0.0672      0.1554      0.0000      0.0287      0.0495
        20         0.0000      0.0001     -0.0730      0.0053      0.0092
 Ground to excited state transition magnetic dipole moments (Au):
       state          X           Y           Z
         1        -0.9740     -0.3873     -0.0001
         2         0.0000      0.0001      0.5412
         3         0.0064      0.5643     -0.0001
         4         0.0000      0.0000      0.2587
         5         0.0000      0.0000     -0.1128
         6         0.0418     -0.0090      0.0000
         7         0.0000      0.0001      0.5025
         8        -0.0404      0.3354     -0.0001
         9        -0.0626      0.1138      0.0000
        10         0.0000      0.0000      0.0845
        11         0.0000     -0.0001     -0.0164
        12         0.1077     -0.2556      0.0000
        13         0.0000     -0.0001      0.1960
        14        -0.0774     -0.5400     -0.0001
        15         0.0000      0.0000     -0.3668
        16        -0.9732      0.8013      0.0000
        17         0.2623     -0.6644      0.0000
        18         0.1768     -0.5239      0.0000
        19        -0.0001      0.0004     -0.0263
        20         0.0035     -0.1046      0.0000
 <0|del|b> * <b|rxdel|0> + <0|del|b> * <b|delr+rdel|0>
 Rotatory Strengths (R) in cgs (10**-40 erg-esu-cm/Gauss)
       state          XX          YY          ZZ    R(velocity)
         1         0.0011      0.0052      0.0017      0.0027
 Total R(velocity) tensor for State=          1
                 1             2             3 
      1   0.110443D-02 -0.115851D-02  0.000000D+00
      2   0.103432D-02  0.523382D-02  0.000000D+00
      3  -0.288462D+02 -0.130520D+02  0.172735D-02
         2        -0.0262     -0.0048      0.0006     -0.0101
 Total R(velocity) tensor for State=          2
                 1             2             3 
      1  -0.262268D-01 -0.186277D-02  0.253178D+02
      2  -0.758332D-02 -0.484289D-02  0.199546D+02
      3   0.424875D+01 -0.109556D+01  0.632867D-03
         3         0.0277      0.0057      0.0007      0.0114
 Total R(velocity) tensor for State=          3
                 1             2             3 
      1   0.277001D-01 -0.566982D-02  0.409280D-05
      2   0.784762D-02  0.574073D-02  0.190879D-05
      3  -0.182200D+01  0.969135D+01  0.681105D-03
         4        -0.0107     -0.0090      0.0046     -0.0050
 Total R(velocity) tensor for State=          4
                 1             2             3 
      1  -0.106549D-01 -0.119266D-01  0.194034D+03
      2   0.367718D-02 -0.903324D-02 -0.619726D+02
      3  -0.598927D+00  0.280613D+02  0.458176D-02
         5        -0.0005      0.0009     -0.0028     -0.0008
 Total R(velocity) tensor for State=          5
                 1             2             3 
      1  -0.548710D-03 -0.589568D-03 -0.224316D+02
      2   0.115585D-02  0.949854D-03  0.298328D+02
      3   0.190214D+02  0.739973D+01 -0.276521D-02
         6        -0.0017     -0.0008      0.0008     -0.0006
 Total R(velocity) tensor for State=          6
                 1             2             3 
      1  -0.171410D-02 -0.718180D-03  0.000000D+00
      2  -0.516912D-02 -0.803579D-03  0.000000D+00
      3  -0.135621D+01  0.415202D+00  0.809637D-03
         7         0.0005      0.0149      0.0101      0.0085
 Total R(velocity) tensor for State=          7
                 1             2             3 
      1   0.538735D-03  0.436639D-01  0.207254D+03
      2  -0.587463D-02  0.148685D-01 -0.760412D+01
      3  -0.620806D+01  0.174641D+02  0.101053D-01
         8        -0.0129     -0.0141      0.0037     -0.0078
 Total R(velocity) tensor for State=          8
                 1             2             3 
      1  -0.128824D-01 -0.378815D-01  0.107358D-04
      2   0.661368D-02 -0.141422D-01  0.000000D+00
      3   0.618290D+01 -0.331765D+02  0.374961D-02
         9         0.0012      0.0000     -0.0007      0.0002
 Total R(velocity) tensor for State=          9
                 1             2             3 
      1   0.118168D-02 -0.139574D-02  0.000000D+00
      2  -0.561123D-03  0.363601D-04  0.000000D+00
      3  -0.380971D+01  0.320862D-03 -0.677637D-03
        10        -0.0001      0.0006     -0.0003      0.0001
 Total R(velocity) tensor for State=         10
                 1             2             3 
      1  -0.741230D-04 -0.703752D-03 -0.104572D+02
      2  -0.247265D-03  0.616596D-03 -0.124592D+01
      3  -0.266487D+01  0.782856D+01 -0.319292D-03
        11        -0.0002     -0.0045     -0.0009     -0.0018
 Total R(velocity) tensor for State=         11
                 1             2             3 
      1  -0.201066D-03 -0.623724D-02 -0.169255D+02
      2  -0.804807D-02 -0.446040D-02  0.871933D+01
      3   0.899208D+00  0.846471D+00 -0.886715D-03
        12         0.0002      0.0048     -0.0002      0.0016
 Total R(velocity) tensor for State=         12
                 1             2             3 
      1   0.171601D-03  0.702666D-02  0.000000D+00
      2   0.780809D-02  0.476047D-02  0.106634D-05
      3   0.638446D+00  0.294072D+01 -0.214292D-03
        13         0.0026      0.0061     -0.0017      0.0023
 Total R(velocity) tensor for State=         13
                 1             2             3 
      1   0.259713D-02  0.408561D-02 -0.275256D+01
      2  -0.358300D-02  0.606983D-02  0.878597D+00
      3   0.841917D+00 -0.225424D+01 -0.172814D-02
        14        -0.0026     -0.0056      0.0025     -0.0019
 Total R(velocity) tensor for State=         14
                 1             2             3 
      1  -0.260672D-02 -0.326675D-02  0.000000D+00
      2   0.296628D-02 -0.564343D-02  0.000000D+00
      3   0.170893D+02  0.352193D+02  0.247310D-02
        15         0.0005     -0.0005     -0.0013     -0.0004
 Total R(velocity) tensor for State=         15
                 1             2             3 
      1   0.498560D-03 -0.266128D-02 -0.157223D+02
      2   0.203963D-03 -0.545157D-03  0.696253D+01
      3  -0.132758D+01  0.538753D+01 -0.130193D-02
        16        -0.0032      0.0013     -0.0005     -0.0008
 Total R(velocity) tensor for State=         16
                 1             2             3 
      1  -0.321190D-02  0.191328D-02  0.000000D+00
      2  -0.360450D-02  0.132653D-02  0.000000D+00
      3   0.169369D+02 -0.190568D+02 -0.458219D-03
        17        -0.0018      0.0014     -0.0032     -0.0012
 Total R(velocity) tensor for State=         17
                 1             2             3 
      1  -0.176278D-02 -0.530958D-03  0.000000D+00
      2  -0.143895D-02  0.140598D-02  0.000000D+00
      3  -0.264182D+02  0.180162D+02 -0.320837D-02
        18        -0.0535      0.0010     -0.0149     -0.0225
 Total R(velocity) tensor for State=         18
                 1             2             3 
      1  -0.535376D-01  0.370267D-01 -0.212725D-04
      2   0.393710D-02  0.993092D-03 -0.879304D-05
      3  -0.761796D+01  0.954170D+01 -0.149371D-01
        19         0.0616     -0.0061      0.0325      0.0293
 Total R(velocity) tensor for State=         19
                 1             2             3 
      1   0.615593D-01 -0.150193D-01 -0.588022D+02
      2   0.211484D-01 -0.605823D-02 -0.156468D+02
      3   0.539487D+02 -0.233285D+02  0.325293D-01
        20        -0.0084      0.0075     -0.0141     -0.0050
 Total R(velocity) tensor for State=         20
                 1             2             3 
      1  -0.836612D-02 -0.857233D-02 -0.163683D-04
      2  -0.260364D-01  0.746043D-02 -0.750953D-05
      3   0.248904D+00 -0.112231D+02 -0.141153D-01
 1/2[<0|r|b>*<b|rxdel|0> + (<0|rxdel|b>*<b|r|0>)*]
 Rotatory Strengths (R) in cgs (10**-40 erg-esu-cm/Gauss)
       state          XX          YY          ZZ     R(length)     R(au)
         1         0.0061     -0.0009      0.0032      0.0028      0.0000
         2         0.0008     -0.0110     -0.0207     -0.0103      0.0000
         3         0.0002      0.0114      0.0229      0.0115      0.0000
         4        -0.0015      0.0002     -0.0141     -0.0051      0.0000
         5         0.0016     -0.0029     -0.0011     -0.0008      0.0000
         6        -0.0003     -0.0006     -0.0008     -0.0006      0.0000
         7         0.0216     -0.0158      0.0206      0.0088      0.0000
         8        -0.0039      0.0178     -0.0379     -0.0080      0.0000
         9        -0.0016      0.0005      0.0016      0.0002      0.0000
        10         0.0006      0.0000     -0.0002      0.0001      0.0000
        11        -0.0017     -0.0046      0.0005     -0.0019      0.0000
        12         0.0029      0.0041     -0.0019      0.0017      0.0000
        13        -0.0015     -0.0021      0.0098      0.0021      0.0000
        14         0.0011      0.0038     -0.0101     -0.0017      0.0000
        15        -0.0012      0.0004     -0.0003     -0.0004      0.0000
        16         0.0041     -0.0042     -0.0024     -0.0009      0.0000
        17        -0.0024     -0.0064      0.0048     -0.0013      0.0000
        18         0.0155     -0.0815     -0.0007     -0.0222      0.0000
        19        -0.0112      0.0993     -0.0012      0.0290      0.0001
        20         0.0003     -0.0176      0.0025     -0.0049      0.0000
  1/2[<0|del|b>*<b|r|0> + (<0|r|b>*<b|del|0>)*] (Au)
       state          X           Y           Z        Dip. S.   Osc.(frdel)
         1         0.0000      0.0000     -0.0017      0.0017      0.0011
         2        -0.0005     -0.0057      0.0000      0.0062      0.0041
         3         0.0000      0.0000     -0.0223      0.0223      0.0149
         4        -0.4915     -0.0003      0.0000      0.4918      0.3279
         5        -0.0301     -0.2012      0.0000      0.2313      0.1542
         6         0.0000      0.0000     -0.0012      0.0012      0.0008
         7        -0.1494     -0.0190      0.0000      0.1684      0.1123
         8         0.0000      0.0000     -0.0549      0.0549      0.0366
         9         0.0000      0.0000     -0.0117      0.0117      0.0078
        10        -0.0072     -0.0008      0.0000      0.0080      0.0054
        11        -0.0045     -0.0050      0.0000      0.0095      0.0063
        12         0.0000      0.0000     -0.0109      0.0109      0.0072
        13        -0.0012     -0.0001      0.0000      0.0013      0.0009
        14         0.0000      0.0000     -0.0173      0.0173      0.0115
        15        -0.0101     -0.0009      0.0000      0.0110      0.0073
        16         0.0000      0.0000     -0.0021      0.0021      0.0014
        17         0.0000      0.0000     -0.0130      0.0130      0.0087
        18         0.0000      0.0000     -0.0033      0.0033      0.0022
        19        -0.0123     -0.0620      0.0000      0.0744      0.0496
        20         0.0000      0.0000     -0.0141      0.0141      0.0094
 Ground to excited state transition densities written to RWF  633

 Excitation energies and oscillator strengths:
 
 Excited state symmetry could not be determined.
 Excited State   1:      Singlet-?Sym    5.7585 eV  215.31 nm  f=0.0010  <S**2>=0.000
      12 -> 16         0.67201
      12 -> 17        -0.19817
 
 Excited state symmetry could not be determined.
 Excited State   2:      Singlet-?Sym    6.9828 eV  177.56 nm  f=0.0041  <S**2>=0.000
      11 -> 16         0.21060
      12 -> 13         0.58280
      12 -> 15         0.24535
      12 -> 18        -0.11639
      12 -> 20        -0.11128
 
 Excited state symmetry could not be determined.
 Excited State   3:      Singlet-?Sym    7.0555 eV  175.73 nm  f=0.0154  <S**2>=0.000
      11 -> 13         0.66495
      11 -> 14         0.10376
      11 -> 19        -0.13325
      11 -> 20        -0.13321
 
 Excited state symmetry could not be determined.
 Excited State   4:      Singlet-?Sym    7.2786 eV  170.34 nm  f=0.3332  <S**2>=0.000
      11 -> 16         0.55414
      11 -> 17        -0.24884
      12 -> 13        -0.12092
      12 -> 14         0.24545
      12 -> 15        -0.13901
      12 -> 18         0.10071
 This state for optimization and/or second-order correction.
 Copying the excited state density for this state as the 1-particle RhoCI density.
 
 Excited state symmetry could not be determined.
 Excited State   5:      Singlet-?Sym    7.6531 eV  162.01 nm  f=0.1562  <S**2>=0.000
      11 -> 16        -0.16103
      12 -> 14         0.58622
      12 -> 15         0.25123
      12 -> 18        -0.12116
      12 -> 19        -0.13061
      12 -> 21        -0.10057
 
 Excited state symmetry could not be determined.
 Excited State   6:      Singlet-?Sym    7.7885 eV  159.19 nm  f=0.0007  <S**2>=0.000
      11 -> 13        -0.10747
      11 -> 14         0.63831
      11 -> 15         0.18600
      11 -> 21        -0.15284
 
 Excited state symmetry could not be determined.
 Excited State   7:      Singlet-?Sym    7.9863 eV  155.25 nm  f=0.1134  <S**2>=0.000
      11 -> 16         0.13445
      12 -> 13        -0.34178
      12 -> 14        -0.17914
      12 -> 15         0.50236
      12 -> 18        -0.23171
 
 Excited state symmetry could not be determined.
 Excited State   8:      Singlet-?Sym    8.0390 eV  154.23 nm  f=0.0377  <S**2>=0.000
      11 -> 14        -0.17832
      11 -> 15         0.64039
      11 -> 18        -0.16359
      11 -> 23        -0.10793
 
 Excited state symmetry could not be determined.
 Excited State   9:      Singlet-?Sym    8.3858 eV  147.85 nm  f=0.0076  <S**2>=0.000
      12 -> 16         0.19331
      12 -> 17         0.66986
 
 Excited state symmetry could not be determined.
 Excited State  10:      Singlet-?Sym    8.6828 eV  142.79 nm  f=0.0064  <S**2>=0.000
      11 -> 16         0.28933
      11 -> 17         0.63523
 
 Excited state symmetry could not be determined.
 Excited State  11:      Singlet-?Sym    9.0330 eV  137.26 nm  f=0.0066  <S**2>=0.000
      12 -> 15         0.29463
      12 -> 18         0.61247
      12 -> 19         0.12520
 
 Excited state symmetry could not be determined.
 Excited State  12:      Singlet-?Sym    9.1128 eV  136.05 nm  f=0.0076  <S**2>=0.000
      11 -> 15         0.13499
      11 -> 18         0.65580
      11 -> 24         0.14675
 
 Excited state symmetry could not be determined.
 Excited State  13:      Singlet-?Sym    9.3222 eV  133.00 nm  f=0.0014  <S**2>=0.000
      12 -> 14         0.14982
      12 -> 18        -0.11067
      12 -> 19         0.64827
      12 -> 21        -0.10073
 
 Excited state symmetry could not be determined.
 Excited State  14:      Singlet-?Sym    9.3827 eV  132.14 nm  f=0.0115  <S**2>=0.000
      11 -> 13         0.11837
      11 -> 19         0.67057
 
 Excited state symmetry could not be determined.
 Excited State  15:      Singlet-?Sym    9.9732 eV  124.32 nm  f=0.0077  <S**2>=0.000
      12 -> 13         0.10389
      12 -> 14        -0.10627
      12 -> 20         0.57762
      12 -> 23         0.32350
      12 -> 24         0.10799
 
 Excited state symmetry could not be determined.
 Excited State  16:      Singlet-?Sym   10.1415 eV  122.25 nm  f=0.0014  <S**2>=0.000
       9 -> 16         0.64493
       9 -> 17        -0.18743
      11 -> 20         0.11274
      11 -> 23         0.12451
 
 Excited state symmetry could not be determined.
 Excited State  17:      Singlet-?Sym   10.2406 eV  121.07 nm  f=0.0082  <S**2>=0.000
       9 -> 16        -0.14596
      11 -> 13         0.14259
      11 -> 20         0.61702
      11 -> 21         0.16317
      11 -> 23         0.14752
 
 Excited state symmetry could not be determined.
 Excited State  18:      Singlet-?Sym   10.4822 eV  118.28 nm  f=0.0030  <S**2>=0.000
       9 -> 16        -0.10686
      11 -> 20        -0.15572
      11 -> 23         0.57145
      11 -> 24         0.24050
      11 -> 26        -0.13237
      12 -> 22         0.12950
 
 Excited state symmetry could not be determined.
 Excited State  19:      Singlet-?Sym   10.5065 eV  118.01 nm  f=0.0497  <S**2>=0.000
      11 -> 22        -0.20874
      12 -> 14         0.10823
      12 -> 20        -0.21045
      12 -> 21         0.39660
      12 -> 23         0.40132
      12 -> 24         0.21772
 
 Excited state symmetry could not be determined.
 Excited State  20:      Singlet-?Sym   10.5326 eV  117.72 nm  f=0.0096  <S**2>=0.000
      11 -> 14        -0.11893
      11 -> 20         0.12862
      11 -> 21        -0.34909
      11 -> 23        -0.10406
      12 -> 22         0.54700
      12 -> 25        -0.12297
 SavETr:  write IOETrn=   770 NScale= 10 NData=  16 NLR=1 LETran=     370.
 FoFJK:  IHMeth= 1 ICntrl=     0 DoSepK=T KAlg= 1 I1Cent= 0 FoldK=F
 FoFJK:  IHMeth= 1 ICntrl=     0 DoSepK=T KAlg= 1 I1Cent= 0 FoldK=F
          IDoAtm=111111
 NEqPCM:  Using equilibrium solvation (IEInf=0, Eps=  78.3553, EpsInf=   1.7778)
          Differentiating once with respect to electric field.
                with respect to dipole field.
          Differentiating once with respect to nuclear coordinates.
          There are     1 degrees of freedom in the 1st order CPHF.  IDoFFX=0.
 FoFJK:  IHMeth= 1 ICntrl=     0 DoSepK=T KAlg= 1 I1Cent= 0 FoldK=F
 LinEq1:  Iter=  0 NonCon=     1 RMS=2.38D-02 Max=4.77D-01
 AX will form     1 AO Fock derivatives at one time.
 FoFJK:  IHMeth= 1 ICntrl=     0 DoSepK=T KAlg= 1 I1Cent= 0 FoldK=F
 LinEq1:  Iter=  1 NonCon=     1 RMS=9.50D-03 Max=1.24D-01
 FoFJK:  IHMeth= 1 ICntrl=     0 DoSepK=T KAlg= 1 I1Cent= 0 FoldK=F
 LinEq1:  Iter=  2 NonCon=     1 RMS=6.84D-03 Max=9.58D-02
 FoFJK:  IHMeth= 1 ICntrl=     0 DoSepK=T KAlg= 1 I1Cent= 0 FoldK=F
 LinEq1:  Iter=  3 NonCon=     1 RMS=1.57D-03 Max=1.22D-02
 FoFJK:  IHMeth= 1 ICntrl=     0 DoSepK=T KAlg= 1 I1Cent= 0 FoldK=F
 LinEq1:  Iter=  4 NonCon=     1 RMS=3.23D-04 Max=2.70D-03
 FoFJK:  IHMeth= 1 ICntrl=     0 DoSepK=T KAlg= 1 I1Cent= 0 FoldK=F
 LinEq1:  Iter=  5 NonCon=     1 RMS=9.26D-05 Max=5.86D-04
 FoFJK:  IHMeth= 1 ICntrl=     0 DoSepK=T KAlg= 1 I1Cent= 0 FoldK=F
 LinEq1:  Iter=  6 NonCon=     1 RMS=3.47D-05 Max=3.12D-04
 FoFJK:  IHMeth= 1 ICntrl=     0 DoSepK=T KAlg= 1 I1Cent= 0 FoldK=F
 LinEq1:  Iter=  7 NonCon=     1 RMS=7.55D-06 Max=6.18D-05
 FoFJK:  IHMeth= 1 ICntrl=     0 DoSepK=T KAlg= 1 I1Cent= 0 FoldK=F
 LinEq1:  Iter=  8 NonCon=     1 RMS=1.33D-06 Max=9.22D-06
 FoFJK:  IHMeth= 1 ICntrl=     0 DoSepK=T KAlg= 1 I1Cent= 0 FoldK=F
 LinEq1:  Iter=  9 NonCon=     1 RMS=1.84D-07 Max=1.16D-06
 FoFJK:  IHMeth= 1 ICntrl=     0 DoSepK=T KAlg= 1 I1Cent= 0 FoldK=F
 LinEq1:  Iter= 10 NonCon=     1 RMS=2.60D-08 Max=2.09D-07
 FoFJK:  IHMeth= 1 ICntrl=     0 DoSepK=T KAlg= 1 I1Cent= 0 FoldK=F
 LinEq1:  Iter= 11 NonCon=     1 RMS=4.23D-09 Max=4.26D-08
 FoFJK:  IHMeth= 1 ICntrl=     0 DoSepK=T KAlg= 1 I1Cent= 0 FoldK=F
 LinEq1:  Iter= 12 NonCon=     1 RMS=9.05D-10 Max=8.32D-09
 FoFJK:  IHMeth= 1 ICntrl=     0 DoSepK=T KAlg= 1 I1Cent= 0 FoldK=F
 LinEq1:  Iter= 13 NonCon=     1 RMS=1.49D-10 Max=1.57D-09
 FoFJK:  IHMeth= 1 ICntrl=     0 DoSepK=T KAlg= 1 I1Cent= 0 FoldK=F
 LinEq1:  Iter= 14 NonCon=     0 RMS=2.44D-11 Max=1.92D-10
 Linear equations converged to 1.000D-10 1.000D-09 after    14 iterations.
 FoFJK:  IHMeth= 1 ICntrl=     0 DoSepK=T KAlg= 1 I1Cent= 0 FoldK=F
 End of Minotr Frequency-dependent properties file   721 does not exist.
 End of Minotr Frequency-dependent properties file   722 does not exist.

 **********************************************************************

            Population analysis using the SCF density.

 **********************************************************************

 Alpha  occ. eigenvalues --  -19.20592 -14.43921 -10.37654  -1.13251  -1.00140
 Alpha  occ. eigenvalues --   -0.70900  -0.63283  -0.56221  -0.49948  -0.49027
 Alpha  occ. eigenvalues --   -0.35108  -0.34314
 Alpha virt. eigenvalues --    0.01671   0.03328   0.04398   0.04944   0.07805
 Alpha virt. eigenvalues --    0.08200   0.09546   0.12744   0.14289   0.14951
 Alpha virt. eigenvalues --    0.15949   0.18128   0.20969   0.21113   0.21475
 Alpha virt. eigenvalues --    0.26157   0.27057   0.27879   0.29166   0.35807
 Alpha virt. eigenvalues --    0.35958   0.36487   0.39837   0.44236   0.45521
 Alpha virt. eigenvalues --    0.48141   0.49435   0.51473   0.54114   0.54574
 Alpha virt. eigenvalues --    0.55022   0.57584   0.58384   0.60579   0.66859
 Alpha virt. eigenvalues --    0.68992   0.72108   0.75272   0.80440   0.83460
 Alpha virt. eigenvalues --    0.86149   0.87232   0.91455   1.05604   1.07186
 Alpha virt. eigenvalues --    1.08786   1.12408   1.18207   1.22635   1.26539
 Alpha virt. eigenvalues --    1.30111   1.34930   1.42877   1.49236   1.49240
 Alpha virt. eigenvalues --    1.66239   1.69918   1.71600   1.76712   1.80636
 Alpha virt. eigenvalues --    1.83629   1.87524   2.00351   2.03408   2.05066
 Alpha virt. eigenvalues --    2.10199   2.14980   2.22047   2.22796   2.28727
 Alpha virt. eigenvalues --    2.46313   2.51524   2.55134   2.66073   2.69134
 Alpha virt. eigenvalues --    2.86876   3.02817   3.17882   3.31104   3.40263
 Alpha virt. eigenvalues --    3.45509   3.46312   3.71927   3.77736
          Condensed to atoms (all electrons):
              1          2          3          4          5          6
     1  C    4.808898   0.335984   0.326708  -0.192686  -0.131091   0.034611
     2  N    0.335984   5.856118  -0.065821   0.390049   0.349243  -0.027194
     3  O    0.326708  -0.065821   8.386466   0.001783  -0.002294  -0.092568
     4  H   -0.192686   0.390049   0.001783   1.048857  -0.216210   0.057068
     5  H   -0.131091   0.349243  -0.002294  -0.216210   1.054479  -0.010156
     6  H    0.034611  -0.027194  -0.092568   0.057068  -0.010156   1.330329
 Mulliken atomic charges:
              1
     1  C    0.817577
     2  N    0.161620
     3  O   -0.554274
     4  H   -0.088860
     5  H   -0.043972
     6  H   -0.292090
 Sum of Mulliken atomic charges =   0.00000
 Mulliken charges with hydrogens summed into heavy atoms:
              1
     1  C    0.525486
     2  N    0.028788
     3  O   -0.554274
 Sum of Mulliken charges with hydrogens summed into heavy atoms =   0.00000
 Electronic spatial extent (au):  <R**2>=            146.9405
 Charge=              0.0000 electrons
 Dipole moment (field-independent basis, Debye):
    X=              5.1238    Y=              1.2632    Z=              0.0005  Tot=              5.2772
 Quadrupole moment (field-independent basis, Debye-Ang):
   XX=            -18.5724   YY=            -15.2274   ZZ=            -19.2154
   XY=             -1.5257   XZ=              0.0002   YZ=             -0.0001
 Traceless Quadrupole moment (field-independent basis, Debye-Ang):
   XX=             -0.9007   YY=              2.4444   ZZ=             -1.5436
   XY=             -1.5257   XZ=              0.0002   YZ=             -0.0001
 Octapole moment (field-independent basis, Debye-Ang**2):
  XXX=             17.6895  YYY=             -0.6427  ZZZ=              0.0000  XYY=              3.9508
  XXY=              1.2891  XXZ=              0.0016  XZZ=             -0.7030  YZZ=              0.0247
  YYZ=              0.0003  XYZ=              0.0001
 Hexadecapole moment (field-independent basis, Debye-Ang**3):
 XXXX=           -115.0901 YYYY=            -33.8700 ZZZZ=            -19.6085 XXXY=              1.9779
 XXXZ=             -0.0015 YYYX=             -4.5769 YYYZ=             -0.0004 ZZZX=             -0.0036
 ZZZY=              0.0000 XXYY=            -24.0874 XXZZ=            -26.3725 YYZZ=            -10.2570
 XXYZ=              0.0002 YYXZ=             -0.0008 ZZXY=             -0.0017
 N-N= 7.116952588400D+01 E-N=-5.404459692202D+02  KE= 1.687833827230D+02
 D1PCM: PCM CHGder 1st derivatives, ID1Alg=3 FixD1E=F DoIter=F DoCFld=F I1PDM=6.
 Calling FoFJK, ICntrl=      5127 FMM=F ISym2X=0 I1Cent= 0 IOpClX= 0 NMat=1 NMatS=1 NMatT=0.
 FoFJK:  IHMeth= 1 ICntrl=  5127 DoSepK=T KAlg= 1 I1Cent= 0 FoldK=F
 -------------------------------------------------------------------
 Center     Atomic                   Forces (Hartrees/Bohr)
 Number     Number              X              Y              Z
 -------------------------------------------------------------------
      1        6           0.032280781    0.116446980    0.000002309
      2        7           0.028322107   -0.037542036    0.000002011
      3        8          -0.065275685   -0.066852831   -0.000004512
      4        1           0.003016856   -0.008409733    0.000000081
      5        1           0.004546799    0.002443010    0.000000102
      6        1          -0.002890858   -0.006085390    0.000000008
 -------------------------------------------------------------------
 Cartesian Forces:  Max     0.116446980 RMS     0.037782687

 GradGradGradGradGradGradGradGradGradGradGradGradGradGradGradGradGradGrad
 Berny optimization.
 Internal  Forces:  Max     0.090426085 RMS     0.029555003
 Search for a local minimum.
 Step number   1 out of a maximum of   25
 All quantities printed in internal units (Hartrees-Bohrs-Radians)
 Mixed Optimization -- RFO/linear search
 Second derivative matrix not updated -- first step.
 The second derivative matrix:
                          R1        R2        R3        R4        R5
           R1           0.56693
           R2           0.00000   0.92361
           R3           0.00000   0.00000   0.33098
           R4           0.00000   0.00000   0.00000   0.45754
           R5           0.00000   0.00000   0.00000   0.00000   0.46145
           A1           0.00000   0.00000   0.00000   0.00000   0.00000
           A2           0.00000   0.00000   0.00000   0.00000   0.00000
           A3           0.00000   0.00000   0.00000   0.00000   0.00000
           A4           0.00000   0.00000   0.00000   0.00000   0.00000
           A5           0.00000   0.00000   0.00000   0.00000   0.00000
           A6           0.00000   0.00000   0.00000   0.00000   0.00000
           D1           0.00000   0.00000   0.00000   0.00000   0.00000
           D2           0.00000   0.00000   0.00000   0.00000   0.00000
           D3           0.00000   0.00000   0.00000   0.00000   0.00000
           D4           0.00000   0.00000   0.00000   0.00000   0.00000
                          A1        A2        A3        A4        A5
           A1           0.25000
           A2           0.00000   0.16000
           A3           0.00000   0.00000   0.16000
           A4           0.00000   0.00000   0.00000   0.16000
           A5           0.00000   0.00000   0.00000   0.00000   0.16000
           A6           0.00000   0.00000   0.00000   0.00000   0.00000
           D1           0.00000   0.00000   0.00000   0.00000   0.00000
           D2           0.00000   0.00000   0.00000   0.00000   0.00000
           D3           0.00000   0.00000   0.00000   0.00000   0.00000
           D4           0.00000   0.00000   0.00000   0.00000   0.00000
                          A6        D1        D2        D3        D4
           A6           0.16000
           D1           0.00000   0.02455
           D2           0.00000   0.00000   0.02455
           D3           0.00000   0.00000   0.00000   0.02455
           D4           0.00000   0.00000   0.00000   0.00000   0.02455
     Eigenvalues ---    0.02455   0.02455   0.02455   0.16000   0.16000
     Eigenvalues ---    0.16000   0.22000   0.33098   0.45754   0.46145
     Eigenvalues ---    0.56693   0.923611000.000001000.000001000.00000
 RFO step:  Lambda=-2.25249698D-02 EMin= 2.45504600D-02
 Linear search not attempted -- first point.
 Iteration  1 RMS(Cart)=  0.07201716 RMS(Int)=  0.00416951
 Iteration  2 RMS(Cart)=  0.00519228 RMS(Int)=  0.00001457
 Iteration  3 RMS(Cart)=  0.00001538 RMS(Int)=  0.00000000
 Iteration  4 RMS(Cart)=  0.00000000 RMS(Int)=  0.00000000
 Variable       Old X    -DE/DX   Delta X   Delta X   Delta X     New X
                                 (Linear)    (Quad)   (Total)
    R1        2.53658   0.05057   0.00000   0.08579   0.08579   2.62237
    R2        2.31863   0.09043   0.00000   0.09557   0.09557   2.41421
    R3        2.08880  -0.00612   0.00000  -0.01732  -0.01732   2.07148
    R4        1.91109   0.00868   0.00000   0.01808   0.01808   1.92917
    R5        1.90668   0.00513   0.00000   0.01059   0.01059   1.91728
    A1        2.17634  -0.03833   0.00000  -0.15803  -0.15803   2.01831
    A2        1.97993   0.02210   0.00000   0.09510   0.09510   2.07503
    A3        2.12692   0.01623   0.00000   0.06293   0.06293   2.18985
    A4        2.09837   0.00232   0.00000   0.01271   0.01271   2.11107
    A5        2.10930  -0.00059   0.00000  -0.00322  -0.00322   2.10608
    A6        2.07552  -0.00173   0.00000  -0.00949  -0.00949   2.06603
    D1       -0.00004   0.00000   0.00000   0.00001   0.00001  -0.00003
    D2       -3.14155   0.00000   0.00000  -0.00001  -0.00001  -3.14155
    D3        3.14156   0.00000   0.00000   0.00000   0.00000   3.14157
    D4        0.00005   0.00000   0.00000  -0.00001  -0.00001   0.00004
         Item               Value     Threshold  Converged?
 Maximum Force            0.090426     0.000450     NO 
 RMS     Force            0.029555     0.000300     NO 
 Maximum Displacement     0.137627     0.001800     NO 
 RMS     Displacement     0.073165     0.001200     NO 
 Predicted change in Energy=-1.188723D-02
 GradGradGradGradGradGradGradGradGradGradGradGradGradGradGradGradGradGrad

                          Input orientation:                          
 ---------------------------------------------------------------------
 Center     Atomic      Atomic             Coordinates (Angstroms)
 Number     Number       Type             X           Y           Z
 ---------------------------------------------------------------------
      1          6           0       -0.151055    0.462240   -0.000008
      2          7           0        1.085593   -0.167368    0.000064
      3          8           0       -1.166258   -0.313313   -0.000075
      4          1           0        1.156339   -1.185789    0.000091
      5          1           0        1.942717    0.375505    0.000154
      6          1           0       -0.187566    1.557810   -0.000008
 ---------------------------------------------------------------------
                    Distance matrix (angstroms):
                    1          2          3          4          5
     1  C    0.000000
     2  N    1.387698   0.000000
     3  O    1.277544   2.256575   0.000000
     4  H    2.103635   1.020875   2.481063   0.000000
     5  H    2.095568   1.014580   3.184367   1.748150   0.000000
     6  H    1.096178   2.144102   2.111620   3.055064   2.436381
                    6
     6  H    0.000000
 Symmetry turned off by external request.
 Stoichiometry    CH3NO
 Framework group  C1[X(CH3NO)]
 Deg. of freedom    12
 Full point group                 C1      NOp   1
 Rotational constants (GHZ):     59.8404026     11.5754802      9.6992625
 Standard basis: Aug-CC-pVDZ (5D, 7F)
 Integral buffers will be    131072 words long.
 Raffenetti 2 integral format.
 Two-electron integral symmetry is turned off.
    96 basis functions,   162 primitive gaussians,   102 cartesian basis functions
    12 alpha electrons       12 beta electrons
       nuclear repulsion energy        69.6923531114 Hartrees.
 NAtoms=    6 NActive=    6 NUniq=    6 SFac= 7.50D-01 NAtFMM=   80 NAOKFM=F Big=F
 Standard density basis: Auto (5D, 7F)
   327 Density fitting functions
 ------------------------------------------------------------------------------
 Polarizable Continuum Model (PCM)
 =================================
 Model                : PCM.
 Atomic radii         : UFF (Universal Force Field).
 Polarization charges : Total charges.
 Charge compensation  : None.
 Solution method      : Matrix inversion.
 Cavity type          : Scaled VdW (van der Waals Surface) (Alpha=1.100).
 Cavity algorithm     : GePol (No added spheres)
                        Default sphere list used, NSphG=    6.
                        Lebedev-Laikov grids with approx.  5.0 points / Ang**2.
                        Smoothing algorithm: Karplus/York (Gamma=1.0000).
                        Polarization charges: spherical gaussians, with
                                              point-specific exponents (IZeta= 3).
                        Self-potential: point-specific (ISelfS= 7).
                        Self-field    : sphere-specific E.n sum rule (ISelfD= 2).
 1st derivatives      : Analytical E(r).r(x)/FMM algorithm (CHGder, D1EAlg=3).
                        Cavity 1st derivative terms included.
 Solvent              : Water, Eps=  78.355300 Eps(inf)=   1.777849
 ------------------------------------------------------------------------------
 Spheres list:
 ISph  on   Nord    Re0     Alpha      Xe            Ye            Ze
    1   C      1    1.926   1.100     -0.151055      0.462240     -0.000008
    2   N      2    1.830   1.100      1.085593     -0.167368      0.000064
    3   O      3    1.750   1.100     -1.166258     -0.313313     -0.000075
    4   H      4    1.443   1.100      1.156339     -1.185789      0.000091
    5   H      5    1.443   1.100      1.942717      0.375505      0.000154
    6   H      6    1.443   1.100     -0.187566      1.557810     -0.000008
 ------------------------------------------------------------------------------
 One-electron integrals computed using PRISM.
 NBasis=    96 RedAO= T  NBF=    96
 NBsUse=    96 1.00D-06 NBFU=    96
 Initial guess read from the read-write file.
 B after Tr=     0.000000    0.000000    0.000000
         Rot=    1.000000    0.000000    0.000000    0.000000 Ang=   0.00 deg.
 Harris functional with IExCor=20419 diagonalized for initial guess.
 ExpMin= 2.97D-02 ExpMax= 1.17D+04 ExpMxC= 4.01D+02 IAcc=3 IRadAn=         5 AccDes= 0.00D+00
 HarFok:  IExCor=20419 AccDes= 0.00D+00 IRadAn=         5 IDoV= 1
 ScaDFX=  1.000000  1.000000  1.000000  1.000000
 FoFCou: FMM=F IPFlag=           0 FMFlag=      100000 FMFlg1=           0
         NFxFlg=           0 DoJE=T BraDBF=F KetDBF=T FulRan=T
         Omega=  0.000000  0.000000  1.000000  0.000000  0.000000 ICntrl=     500 IOpCl=  0
         NMat0=    1 NMatS0=    1 NMatT0=    0 NMatD0=    1 NMtDS0=    0 NMtDT0=    0
         I1Cent=           4 NGrid=           0.
 Symmetry not used in FoFCou.
 Requested convergence on RMS density matrix=1.00D-08 within 128 cycles.
 Requested convergence on MAX density matrix=1.00D-06.
 Requested convergence on             energy=1.00D-06.
 No special actions if energy rises.
 FoFJK:  IHMeth= 1 ICntrl=     0 DoSepK=T KAlg= 1 I1Cent= 0 FoldK=F
 FoFJK:  IHMeth= 1 ICntrl=     0 DoSepK=T KAlg= 1 I1Cent= 0 FoldK=F
 FoFJK:  IHMeth= 1 ICntrl=     0 DoSepK=T KAlg= 1 I1Cent= 0 FoldK=F
 FoFJK:  IHMeth= 1 ICntrl=     0 DoSepK=T KAlg= 1 I1Cent= 0 FoldK=F
 FoFJK:  IHMeth= 1 ICntrl=     0 DoSepK=T KAlg= 1 I1Cent= 0 FoldK=F
 FoFJK:  IHMeth= 1 ICntrl=     0 DoSepK=T KAlg= 1 I1Cent= 0 FoldK=F
 FoFJK:  IHMeth= 1 ICntrl=     0 DoSepK=T KAlg= 1 I1Cent= 0 FoldK=F
 FoFJK:  IHMeth= 1 ICntrl=     0 DoSepK=T KAlg= 1 I1Cent= 0 FoldK=F
 FoFJK:  IHMeth= 1 ICntrl=     0 DoSepK=T KAlg= 1 I1Cent= 0 FoldK=F
 FoFJK:  IHMeth= 1 ICntrl=     0 DoSepK=T KAlg= 1 I1Cent= 0 FoldK=F
 FoFJK:  IHMeth= 1 ICntrl=     0 DoSepK=T KAlg= 1 I1Cent= 0 FoldK=F
 Error on total polarization charges =  0.01082
 SCF Done:  E(RCAM-B3LYP) =  -169.854939389     A.U. after   11 cycles
             Convg  =    0.3343D-08             -V/T =  2.0080
 ExpMin= 2.97D-02 ExpMax= 1.17D+04 ExpMxC= 4.01D+02 IAcc=3 IRadAn=         5 AccDes= 0.00D+00
 HarFok:  IExCor=  205 AccDes= 0.00D+00 IRadAn=         5 IDoV=-2
 ScaDFX=  1.000000  1.000000  1.000000  1.000000
 Range of M.O.s used for correlation:     4    96
 NBasis=    96 NAE=    12 NBE=    12 NFC=     3 NFV=     0
 NROrb=     93 NOA=     9 NOB=     9 NVA=    84 NVB=    84

 **** Warning!!: The largest alpha MO coefficient is  0.17769029D+02

 NEqPCM:  Using equilibrium solvation (IEInf=0, Eps=  78.3553, EpsInf=   1.7778)
 Generating guess from densities on rwf.
 Convergence on wavefunction:    0.000001000000000
 Iteration     1 Dimension    40 NMult    40
 CISAX will form    40 AO SS matrices at one time.
 FoFJK:  IHMeth= 1 ICntrl=     0 DoSepK=T KAlg= 1 I1Cent= 0 FoldK=F
 FoFJK:  IHMeth= 1 ICntrl=     0 DoSepK=T KAlg= 1 I1Cent= 0 FoldK=F
 New state      2 was old state      4
 New state      4 was old state      2
 New state      5 was old state      6
 New state      6 was old state      8
 New state      7 was old state      5
 New state      8 was old state      7
 New state      9 was old state     10
 New state     10 was old state      9
 New state     11 was old state     12
 New state     12 was old state     11
 New state     13 was old state     14
 New state     14 was old state     16
 New state     15 was old state     13
 New state     16 was old state     17
 New state     17 was old state     15
 New state     19 was old state     20
 New state     20 was old state     19
 Iteration     2 Dimension    80 NMult    80
 FoFJK:  IHMeth= 1 ICntrl=     0 DoSepK=T KAlg= 1 I1Cent= 0 FoldK=F
 FoFJK:  IHMeth= 1 ICntrl=     0 DoSepK=T KAlg= 1 I1Cent= 0 FoldK=F
 New state      6 was old state      7
 New state      7 was old state      6
 New state      9 was old state     10
 New state     10 was old state      9
 New state     14 was old state     15
 New state     15 was old state     14
 New state     16 was old state     17
 New state     17 was old state     16
 Iteration     3 Dimension   120 NMult   120
 FoFJK:  IHMeth= 1 ICntrl=     0 DoSepK=T KAlg= 1 I1Cent= 0 FoldK=F
 FoFJK:  IHMeth= 1 ICntrl=     0 DoSepK=T KAlg= 1 I1Cent= 0 FoldK=F
 Iteration     4 Dimension   160 NMult   160
 FoFJK:  IHMeth= 1 ICntrl=     0 DoSepK=T KAlg= 1 I1Cent= 0 FoldK=F
 FoFJK:  IHMeth= 1 ICntrl=     0 DoSepK=T KAlg= 1 I1Cent= 0 FoldK=F
 New state     18 was old state     20
 New state     19 was old state     18
 New state     20 was old state     19
 Iteration     5 Dimension   200 NMult   200
 FoFJK:  IHMeth= 1 ICntrl=     0 DoSepK=T KAlg= 1 I1Cent= 0 FoldK=F
 FoFJK:  IHMeth= 1 ICntrl=     0 DoSepK=T KAlg= 1 I1Cent= 0 FoldK=F
 Iteration     6 Dimension   240 NMult   240
 FoFJK:  IHMeth= 1 ICntrl=     0 DoSepK=T KAlg= 1 I1Cent= 0 FoldK=F
 FoFJK:  IHMeth= 1 ICntrl=     0 DoSepK=T KAlg= 1 I1Cent= 0 FoldK=F
 Iteration     7 Dimension   272 NMult   272
 FoFJK:  IHMeth= 1 ICntrl=     0 DoSepK=T KAlg= 1 I1Cent= 0 FoldK=F
 FoFJK:  IHMeth= 1 ICntrl=     0 DoSepK=T KAlg= 1 I1Cent= 0 FoldK=F
 Iteration     8 Dimension   290 NMult   290
 FoFJK:  IHMeth= 1 ICntrl=     0 DoSepK=T KAlg= 1 I1Cent= 0 FoldK=F
 FoFJK:  IHMeth= 1 ICntrl=     0 DoSepK=T KAlg= 1 I1Cent= 0 FoldK=F
 Iteration     9 Dimension   302 NMult   302
 FoFJK:  IHMeth= 1 ICntrl=     0 DoSepK=T KAlg= 1 I1Cent= 0 FoldK=F
 FoFJK:  IHMeth= 1 ICntrl=     0 DoSepK=T KAlg= 1 I1Cent= 0 FoldK=F
 Iteration    10 Dimension   306 NMult   306
 FoFJK:  IHMeth= 1 ICntrl=     0 DoSepK=T KAlg= 1 I1Cent= 0 FoldK=F
 FoFJK:  IHMeth= 1 ICntrl=     0 DoSepK=T KAlg= 1 I1Cent= 0 FoldK=F
 Iteration    11 Dimension   310 NMult   310
 FoFJK:  IHMeth= 1 ICntrl=     0 DoSepK=T KAlg= 1 I1Cent= 0 FoldK=F
 FoFJK:  IHMeth= 1 ICntrl=     0 DoSepK=T KAlg= 1 I1Cent= 0 FoldK=F
 Iteration    12 Dimension   312 NMult   312
 FoFJK:  IHMeth= 1 ICntrl=     0 DoSepK=T KAlg= 1 I1Cent= 0 FoldK=F
 FoFJK:  IHMeth= 1 ICntrl=     0 DoSepK=T KAlg= 1 I1Cent= 0 FoldK=F
 ***********************************************************************
 Excited states from <AA,BB:AA,BB> singles matrix:
 ***********************************************************************
 
 Ground to excited state transition electric dipole moments (Au):
       state          X           Y           Z        Dip. S.      Osc.
         1         0.0000      0.0000      0.0513      0.0026      0.0003
         2        -0.6477      0.2261     -0.0001      0.4706      0.0810
         3        -0.0001      0.0000      0.3008      0.0905      0.0152
         4         1.2857      0.0238      0.0001      1.6536      0.2634
         5        -0.0001      0.0002      0.0734      0.0054      0.0010
         6        -0.1578      0.6471      0.0000      0.4436      0.0832
         7         0.0001      0.0000     -0.4545      0.2066      0.0394
         8         0.5045      0.3565      0.0001      0.3816      0.0745
         9        -0.0001      0.0000      0.1104      0.0122      0.0025
        10        -0.2238     -0.0530      0.0000      0.0529      0.0110
        11         0.0000      0.0000      0.1847      0.0341      0.0074
        12         0.2321     -0.0804      0.0000      0.0604      0.0133
        13         0.0000      0.0000     -0.2026      0.0411      0.0092
        14        -0.1711     -0.0699      0.0000      0.0342      0.0078
        15         0.0000      0.0000     -0.0491      0.0024      0.0006
        16         0.0302      0.4376      0.0000      0.1924      0.0468
        17         0.0000     -0.0001     -0.2178      0.0474      0.0117
        18         0.1200     -0.6333      0.0000      0.4155      0.1030
        19         0.0000      0.0000     -0.1090      0.0119      0.0030
        20         0.0000      0.0001     -0.0336      0.0011      0.0003
 Ground to excited state transition velocity dipole moments (Au):
       state          X           Y           Z        Dip. S.      Osc.
         1         0.0000      0.0000     -0.0127      0.0002      0.0006
         2         0.1667     -0.0587      0.0000      0.0312      0.0807
         3         0.0000      0.0000     -0.0732      0.0054      0.0142
         4        -0.3027     -0.0055      0.0000      0.0917      0.2557
         5         0.0000      0.0000     -0.0215      0.0005      0.0011
         6         0.0455     -0.1793      0.0000      0.0342      0.0811
         7         0.0000      0.0000      0.1262      0.0159      0.0371
         8        -0.1473     -0.1028      0.0000      0.0323      0.0734
         9         0.0000      0.0000     -0.0356      0.0013      0.0027
        10         0.0605      0.0141      0.0000      0.0039      0.0082
        11         0.0000      0.0000     -0.0576      0.0033      0.0068
        12        -0.0719      0.0249      0.0000      0.0058      0.0117
        13         0.0000      0.0000      0.0688      0.0047      0.0094
        14         0.0493      0.0204      0.0000      0.0028      0.0056
        15         0.0000      0.0000      0.0193      0.0004      0.0007
        16        -0.0134     -0.1524      0.0000      0.0234      0.0428
        17         0.0000      0.0000      0.0842      0.0071      0.0128
        18        -0.0421      0.2389      0.0000      0.0589      0.1055
        19         0.0000      0.0000      0.0271      0.0007      0.0013
        20         0.0000      0.0000      0.0108      0.0001      0.0002
 Ground to excited state transition magnetic dipole moments (Au):
       state          X           Y           Z
         1        -0.8422     -0.4925      0.0000
         2         0.0000      0.0000      0.3616
         3         0.0028      0.5546      0.0000
         4         0.0000      0.0000      0.5634
         5         0.0370     -0.0782      0.0000
         6         0.0000      0.0000     -0.1773
         7        -0.0490      0.3372      0.0000
         8         0.0000      0.0000      0.3697
         9        -0.0599      0.1252      0.0000
        10         0.0000      0.0000      0.0612
        11         0.1423     -0.2733      0.0000
        12         0.0000      0.0000      0.0301
        13        -0.1127     -0.5178      0.0000
        14         0.0000      0.0000      0.1725
        15        -1.0338      1.0676     -0.0001
        16         0.0000     -0.0001     -0.1311
        17         0.0782     -0.4691      0.0000
        18         0.0000      0.0000     -0.3870
        19         0.1333     -0.4191      0.0000
        20         0.0566     -0.2286      0.0000
 <0|del|b> * <b|rxdel|0> + <0|del|b> * <b|delr+rdel|0>
 Rotatory Strengths (R) in cgs (10**-40 erg-esu-cm/Gauss)
       state          XX          YY          ZZ    R(velocity)
         1         0.0004      0.0047      0.0021      0.0024
 Total R(velocity) tensor for State=          1
                 1             2             3 
      1   0.385419D-03 -0.190286D-02  0.000000D+00
      2   0.946924D-03  0.469869D-02  0.000000D+00
      3  -0.173738D+02 -0.111284D+02  0.208178D-02
         2         0.0150      0.0009     -0.0053      0.0036
 Total R(velocity) tensor for State=          2
                 1             2             3 
      1   0.150255D-01  0.179375D-01 -0.882505D+02
      2   0.640858D-02  0.883911D-03 -0.617690D+02
      3   0.510096D+01  0.144914D+02 -0.525730D-02
         3        -0.0084     -0.0010     -0.0009     -0.0034
 Total R(velocity) tensor for State=          3
                 1             2             3 
      1  -0.840333D-02 -0.249328D-01 -0.106490D-05
      2  -0.229811D-02 -0.976623D-03  0.000000D+00
      3  -0.161371D+01  0.886090D+01 -0.917437D-03
         4        -0.0215     -0.0066      0.0173     -0.0036
 Total R(velocity) tensor for State=          4
                 1             2             3 
      1  -0.214746D-01 -0.596445D-02  0.375846D+03
      2  -0.185750D-02 -0.655093D-02  0.344241D+02
      3  -0.187933D+00  0.103169D+02  0.173298D-01
         5         0.0103      0.0023     -0.0006      0.0040
 Total R(velocity) tensor for State=          5
                 1             2             3 
      1   0.102541D-01  0.421613D-02 -0.155270D-05
      2   0.849995D-02  0.234105D-02  0.106245D-05
      3  -0.156032D+01 -0.231260D+00 -0.599202D-03
         6        -0.0092     -0.0022     -0.0025     -0.0046
 Total R(velocity) tensor for State=          6
                 1             2             3 
      1  -0.915160D-02 -0.443852D-02 -0.429334D+02
      2  -0.911279D-02 -0.224794D-02  0.132082D+01
      3   0.123967D+02  0.314654D+01 -0.247539D-02
         7         0.0024      0.0039     -0.0001      0.0021
 Total R(velocity) tensor for State=          7
                 1             2             3 
      1   0.242919D-02  0.150248D-01  0.000000D+00
      2  -0.196819D-02  0.387562D-02  0.000000D+00
      3   0.753645D+01 -0.338232D+02 -0.889581D-04
         8        -0.0120     -0.0035      0.0102     -0.0018
 Total R(velocity) tensor for State=          8
                 1             2             3 
      1  -0.119792D-01 -0.104453D-01  0.144223D+03
      2   0.138015D-02 -0.350880D-02  0.800757D+01
      3  -0.716480D+01  0.102601D+02  0.102228D-01
         9         0.0004     -0.0004     -0.0018     -0.0006
 Total R(velocity) tensor for State=          9
                 1             2             3 
      1   0.363571D-03 -0.574787D-02  0.000000D+00
      2  -0.303606D-03 -0.391194D-03  0.000000D+00
      3  -0.299376D+01 -0.133696D+01 -0.176123D-02
        10         0.0003      0.0011      0.0009      0.0008
 Total R(velocity) tensor for State=         10
                 1             2             3 
      1   0.348079D-03  0.351098D-02 -0.115383D+02
      2  -0.739028D-04  0.106384D-02 -0.171798D+01
      3  -0.242358D+01  0.104299D+02  0.924093D-03
        11        -0.0017     -0.0031      0.0000     -0.0016
 Total R(velocity) tensor for State=         11
                 1             2             3 
      1  -0.174956D-02 -0.436224D-02  0.000000D+00
      2  -0.315154D-02 -0.310428D-02  0.000000D+00
      3   0.279731D+01  0.214327D+01  0.117019D-04
        12         0.0014      0.0037     -0.0006      0.0015
 Total R(velocity) tensor for State=         12
                 1             2             3 
      1   0.140078D-02  0.476208D-02 -0.165362D+02
      2   0.169906D-02  0.372464D-02  0.271550D+02
      3   0.601667D+00  0.173680D+01 -0.557592D-03
        13        -0.0005      0.0013     -0.0015     -0.0003
 Total R(velocity) tensor for State=         13
                 1             2             3 
      1  -0.516423D-03  0.500325D-02  0.000000D+00
      2  -0.127269D-02  0.125799D-02  0.000000D+00
      3   0.180914D+02  0.293406D+02 -0.151053D-02
        14         0.0001      0.0010      0.0025      0.0012
 Total R(velocity) tensor for State=         14
                 1             2             3 
      1   0.116173D-03 -0.166040D-02 -0.104829D+02
      2  -0.387983D-03  0.103397D-02  0.742248D+00
      3   0.190225D+01 -0.459037D+01  0.251054D-02
        15        -0.0067      0.0008     -0.0029     -0.0029
 Total R(velocity) tensor for State=         15
                 1             2             3 
      1  -0.672411D-02  0.167717D-02  0.000000D+00
      2  -0.637767D-02  0.812973D-03  0.000000D+00
      3   0.149749D+02 -0.174561D+02 -0.289893D-02
        16         0.0173     -0.0016     -0.0024      0.0044
 Total R(velocity) tensor for State=         16
                 1             2             3 
      1   0.173400D-01 -0.350256D-02 -0.772626D+02
      2   0.623104D-02 -0.164586D-02 -0.428857D+02
      3  -0.929999D+01  0.817398D+00 -0.242677D-02
        17        -0.0309      0.0003     -0.0076     -0.0127
 Total R(velocity) tensor for State=         17
                 1             2             3 
      1  -0.309189D-01  0.268209D-02 -0.596160D-05
      2   0.785634D-02  0.323871D-03  0.107321D-05
      3  -0.239642D+02  0.894250D+01 -0.763549D-02
        18         0.0239      0.0013     -0.0044      0.0069
 Total R(velocity) tensor for State=         18
                 1             2             3 
      1   0.239160D-01 -0.273918D-03 -0.165920D+03
      2  -0.542620D-02  0.128812D-02  0.829258D+02
      3   0.323744D+02  0.571024D+01 -0.438748D-02
        19        -0.0011      0.0008      0.0010      0.0002
 Total R(velocity) tensor for State=         19
                 1             2             3 
      1  -0.113568D-02  0.597210D-02  0.000000D+00
      2   0.330931D-03  0.823194D-03  0.000000D+00
      3  -0.610613D+01  0.733046D+01  0.103669D-02
        20         0.0054      0.0005      0.0028      0.0029
 Total R(velocity) tensor for State=         20
                 1             2             3 
      1   0.542772D-02  0.701456D-03  0.000000D+00
      2   0.143170D-02  0.503031D-03  0.000000D+00
      3   0.434037D-01  0.152979D+01  0.284729D-02
 1/2[<0|r|b>*<b|rxdel|0> + (<0|rxdel|b>*<b|r|0>)*]
 Rotatory Strengths (R) in cgs (10**-40 erg-esu-cm/Gauss)
       state          XX          YY          ZZ     R(length)     R(au)
         1         0.0068     -0.0011      0.0018      0.0025      0.0000
         2        -0.0116      0.0059      0.0165      0.0036      0.0000
         3         0.0002     -0.0060     -0.0047     -0.0035      0.0000
         4         0.0185      0.0001     -0.0295     -0.0036      0.0000
         5         0.0014      0.0088      0.0019      0.0040      0.0000
         6         0.0001     -0.0102     -0.0038     -0.0046      0.0000
         7         0.0025     -0.0041      0.0080      0.0021      0.0000
         8         0.0075      0.0049     -0.0178     -0.0018      0.0000
         9        -0.0029      0.0013     -0.0003     -0.0006      0.0000
        10         0.0026     -0.0009      0.0009      0.0009      0.0000
        11        -0.0009     -0.0020     -0.0021     -0.0017      0.0000
        12         0.0034      0.0014      0.0001      0.0016      0.0000
        13        -0.0015     -0.0009      0.0009     -0.0005      0.0000
        14         0.0046      0.0009     -0.0007      0.0016      0.0000
        15         0.0024     -0.0103     -0.0019     -0.0033      0.0000
        16        -0.0008      0.0160     -0.0010      0.0047      0.0000
        17        -0.0019     -0.0334     -0.0029     -0.0128      0.0000
        18        -0.0003      0.0161      0.0043      0.0067      0.0000
        19         0.0021     -0.0034      0.0023      0.0003      0.0000
        20         0.0005      0.0086     -0.0004      0.0029      0.0000
  1/2[<0|del|b>*<b|r|0> + (<0|r|b>*<b|del|0>)*] (Au)
       state          X           Y           Z        Dip. S.   Osc.(frdel)
         1         0.0000      0.0000     -0.0007      0.0007      0.0004
         2        -0.1079     -0.0133      0.0000      0.1212      0.0808
         3         0.0000      0.0000     -0.0220      0.0220      0.0147
         4        -0.3892     -0.0001      0.0000      0.3893      0.2596
         5         0.0000      0.0000     -0.0016      0.0016      0.0011
         6        -0.0072     -0.1160      0.0000      0.1232      0.0821
         7         0.0000      0.0000     -0.0573      0.0573      0.0382
         8        -0.0743     -0.0367      0.0000      0.1109      0.0740
         9         0.0000      0.0000     -0.0039      0.0039      0.0026
        10        -0.0135     -0.0007      0.0000      0.0143      0.0095
        11         0.0000      0.0000     -0.0106      0.0106      0.0071
        12        -0.0167     -0.0020      0.0000      0.0187      0.0125
        13         0.0000      0.0000     -0.0139      0.0139      0.0093
        14        -0.0084     -0.0014      0.0000      0.0099      0.0066
        15         0.0000      0.0000     -0.0009      0.0009      0.0006
        16        -0.0004     -0.0667      0.0000      0.0671      0.0447
        17         0.0000      0.0000     -0.0183      0.0183      0.0122
        18        -0.0051     -0.1513      0.0000      0.1564      0.1042
        19         0.0000      0.0000     -0.0030      0.0030      0.0020
        20         0.0000      0.0000     -0.0004      0.0004      0.0002
 Ground to excited state transition densities written to RWF  633

 Excitation energies and oscillator strengths:
 
 Excited state symmetry could not be determined.
 Excited State   1:      Singlet-?Sym    5.1708 eV  239.78 nm  f=0.0003  <S**2>=0.000
      11 -> 14         0.69411
      11 -> 17        -0.10695
 
 Excited state symmetry could not be determined.
 Excited State   2:      Singlet-?Sym    7.0220 eV  176.57 nm  f=0.0810  <S**2>=0.000
      11 -> 13         0.57792
      11 -> 15        -0.12297
      11 -> 16         0.30723
      11 -> 18        -0.16571
      11 -> 20        -0.10276
 
 Excited state symmetry could not be determined.
 Excited State   3:      Singlet-?Sym    6.8455 eV  181.12 nm  f=0.0152  <S**2>=0.000
      12 -> 13         0.66083
      12 -> 15         0.13164
      12 -> 19        -0.13111
      12 -> 20        -0.12864
 
 Excited state symmetry could not be determined.
 Excited State   4:      Singlet-?Sym    6.5030 eV  190.66 nm  f=0.2634  <S**2>=0.000
      11 -> 13         0.11414
      12 -> 14         0.66128
      12 -> 17        -0.16675
 This state for optimization and/or second-order correction.
 Copying the excited state density for this state as the 1-particle RhoCI density.
 
 Excited state symmetry could not be determined.
 Excited State   5:      Singlet-?Sym    7.5998 eV  163.14 nm  f=0.0010  <S**2>=0.000
      12 -> 13        -0.13951
      12 -> 15         0.63832
      12 -> 16         0.16364
      12 -> 21        -0.15745
 
 Excited state symmetry could not be determined.
 Excited State   6:      Singlet-?Sym    7.6584 eV  161.89 nm  f=0.0832  <S**2>=0.000
      11 -> 15         0.64557
      11 -> 16         0.14483
      11 -> 19        -0.15502
      11 -> 21        -0.11669
 
 Excited state symmetry could not be determined.
 Excited State   7:      Singlet-?Sym    7.7884 eV  159.19 nm  f=0.0394  <S**2>=0.000
      12 -> 15        -0.15225
      12 -> 16         0.64429
      12 -> 18        -0.17101
      12 -> 23        -0.10477
 
 Excited state symmetry could not be determined.
 Excited State   8:      Singlet-?Sym    7.9702 eV  155.56 nm  f=0.0745  <S**2>=0.000
      11 -> 13        -0.35292
      11 -> 16         0.52303
      11 -> 18        -0.25838
 
 Excited state symmetry could not be determined.
 Excited State   9:      Singlet-?Sym    8.4504 eV  146.72 nm  f=0.0025  <S**2>=0.000
      11 -> 14         0.10052
      11 -> 17         0.68831
      11 -> 25         0.10491
 
 Excited state symmetry could not be determined.
 Excited State  10:      Singlet-?Sym    8.5146 eV  145.61 nm  f=0.0110  <S**2>=0.000
      12 -> 14         0.17660
      12 -> 17         0.67527
 
 Excited state symmetry could not be determined.
 Excited State  11:      Singlet-?Sym    8.8339 eV  140.35 nm  f=0.0074  <S**2>=0.000
      12 -> 16         0.14018
      12 -> 18         0.64827
      12 -> 24        -0.15360
 
 Excited state symmetry could not be determined.
 Excited State  12:      Singlet-?Sym    9.0029 eV  137.72 nm  f=0.0133  <S**2>=0.000
      11 -> 16         0.30349
      11 -> 18         0.60302
      11 -> 19         0.14058
 
 Excited state symmetry could not be determined.
 Excited State  13:      Singlet-?Sym    9.1618 eV  135.33 nm  f=0.0092  <S**2>=0.000
      12 -> 13         0.11122
      12 -> 19         0.67000
 
 Excited state symmetry could not be determined.
 Excited State  14:      Singlet-?Sym    9.3072 eV  133.21 nm  f=0.0078  <S**2>=0.000
      11 -> 15         0.15297
      11 -> 18        -0.12051
      11 -> 19         0.64452
 
 Excited state symmetry could not be determined.
 Excited State  15:      Singlet-?Sym    9.3997 eV  131.90 nm  f=0.0006  <S**2>=0.000
       9 -> 14         0.68652
       9 -> 17        -0.10546
 
 Excited state symmetry could not be determined.
 Excited State  16:      Singlet-?Sym    9.9245 eV  124.93 nm  f=0.0468  <S**2>=0.000
      10 -> 14        -0.44769
      11 -> 20         0.35373
      11 -> 23         0.35610
      11 -> 24        -0.12672
 
 Excited state symmetry could not be determined.
 Excited State  17:      Singlet-?Sym   10.0335 eV  123.57 nm  f=0.0117  <S**2>=0.000
      10 -> 15        -0.10462
      12 -> 13         0.12791
      12 -> 20         0.56429
      12 -> 21         0.26967
      12 -> 23         0.21953
 
 Excited state symmetry could not be determined.
 Excited State  18:      Singlet-?Sym   10.1178 eV  122.54 nm  f=0.1030  <S**2>=0.000
      10 -> 14         0.47654
      11 -> 20         0.39179
      11 -> 23         0.20677
      12 -> 22        -0.17005
 
 Excited state symmetry could not be determined.
 Excited State  19:      Singlet-?Sym   10.2661 eV  120.77 nm  f=0.0030  <S**2>=0.000
      12 -> 20        -0.14735
      12 -> 21        -0.13923
      12 -> 23         0.57067
      12 -> 24        -0.24630
      12 -> 26         0.12145
 
 Excited state symmetry could not be determined.
 Excited State  20:      Singlet-?Sym   10.3253 eV  120.08 nm  f=0.0003  <S**2>=0.000
      12 -> 15        -0.18120
      12 -> 20         0.31616
      12 -> 21        -0.55086
      12 -> 24        -0.12245
      12 -> 27        -0.10289
 SavETr:  write IOETrn=   770 NScale= 10 NData=  16 NLR=1 LETran=     370.
 FoFJK:  IHMeth= 1 ICntrl=     0 DoSepK=T KAlg= 1 I1Cent= 0 FoldK=F
 FoFJK:  IHMeth= 1 ICntrl=     0 DoSepK=T KAlg= 1 I1Cent= 0 FoldK=F
          IDoAtm=111111
 NEqPCM:  Using equilibrium solvation (IEInf=0, Eps=  78.3553, EpsInf=   1.7778)
          Differentiating once with respect to electric field.
                with respect to dipole field.
          Differentiating once with respect to nuclear coordinates.
          There are     1 degrees of freedom in the 1st order CPHF.  IDoFFX=0.
 FoFJK:  IHMeth= 1 ICntrl=     0 DoSepK=T KAlg= 1 I1Cent= 0 FoldK=F
 LinEq1:  Iter=  0 NonCon=     1 RMS=2.76D-02 Max=6.11D-01
 AX will form     1 AO Fock derivatives at one time.
 FoFJK:  IHMeth= 1 ICntrl=     0 DoSepK=T KAlg= 1 I1Cent= 0 FoldK=F
 LinEq1:  Iter=  1 NonCon=     1 RMS=9.69D-03 Max=1.22D-01
 FoFJK:  IHMeth= 1 ICntrl=     0 DoSepK=T KAlg= 1 I1Cent= 0 FoldK=F
 LinEq1:  Iter=  2 NonCon=     1 RMS=6.29D-03 Max=8.98D-02
 FoFJK:  IHMeth= 1 ICntrl=     0 DoSepK=T KAlg= 1 I1Cent= 0 FoldK=F
 LinEq1:  Iter=  3 NonCon=     1 RMS=2.48D-03 Max=1.94D-02
 FoFJK:  IHMeth= 1 ICntrl=     0 DoSepK=T KAlg= 1 I1Cent= 0 FoldK=F
 LinEq1:  Iter=  4 NonCon=     1 RMS=9.48D-04 Max=8.22D-03
 FoFJK:  IHMeth= 1 ICntrl=     0 DoSepK=T KAlg= 1 I1Cent= 0 FoldK=F
 LinEq1:  Iter=  5 NonCon=     1 RMS=2.55D-04 Max=2.19D-03
 FoFJK:  IHMeth= 1 ICntrl=     0 DoSepK=T KAlg= 1 I1Cent= 0 FoldK=F
 LinEq1:  Iter=  6 NonCon=     1 RMS=4.91D-05 Max=4.86D-04
 FoFJK:  IHMeth= 1 ICntrl=     0 DoSepK=T KAlg= 1 I1Cent= 0 FoldK=F
 LinEq1:  Iter=  7 NonCon=     1 RMS=1.11D-05 Max=1.44D-04
 FoFJK:  IHMeth= 1 ICntrl=     0 DoSepK=T KAlg= 1 I1Cent= 0 FoldK=F
 LinEq1:  Iter=  8 NonCon=     1 RMS=2.18D-06 Max=1.99D-05
 FoFJK:  IHMeth= 1 ICntrl=     0 DoSepK=T KAlg= 1 I1Cent= 0 FoldK=F
 LinEq1:  Iter=  9 NonCon=     1 RMS=4.02D-07 Max=3.60D-06
[...]
      11 -> 17         0.26760
      11 -> 18         0.12714
      12 -> 17        -0.14621
 
 Excited state symmetry could not be determined.
 Excited State  11:      Singlet-?Sym    8.3665 eV  148.19 nm  f=0.1667  <S**2>=0.000
       9 -> 13         0.33713
      10 -> 13         0.30466
      11 -> 14         0.15250
      11 -> 15         0.20656
      11 -> 16        -0.36142
      11 -> 17         0.11920
      12 -> 17         0.20475
 
 Excited state symmetry could not be determined.
 Excited State  12:      Singlet-?Sym    8.5157 eV  145.59 nm  f=0.0292  <S**2>=0.000
      11 -> 14         0.10949
      11 -> 16         0.27639
      11 -> 17         0.59195
      11 -> 18        -0.14385
 
 Excited state symmetry could not be determined.
 Excited State  13:      Singlet-?Sym    8.7482 eV  141.73 nm  f=0.0595  <S**2>=0.000
      11 -> 16         0.11139
      12 -> 18        -0.63671
      12 -> 19        -0.12130
 
 Excited state symmetry could not be determined.
 Excited State  14:      Singlet-?Sym    8.9864 eV  137.97 nm  f=0.0199  <S**2>=0.000
      12 -> 18         0.13390
      12 -> 19        -0.66233
 
 Excited state symmetry could not be determined.
 Excited State  15:      Singlet-?Sym    9.3184 eV  133.05 nm  f=0.0246  <S**2>=0.000
       7 -> 13         0.19784
       8 -> 13         0.62924
      11 -> 18        -0.15221
 
 Excited state symmetry could not be determined.
 Excited State  16:      Singlet-?Sym    9.4319 eV  131.45 nm  f=0.0215  <S**2>=0.000
       8 -> 13        -0.17517
      11 -> 16        -0.18219
      11 -> 18        -0.56041
      12 -> 20         0.21828
      12 -> 21        -0.13038
 
 Excited state symmetry could not be determined.
 Excited State  17:      Singlet-?Sym    9.4807 eV  130.78 nm  f=0.0385  <S**2>=0.000
      11 -> 18         0.26034
      12 -> 14         0.11335
      12 -> 20         0.49709
      12 -> 21        -0.28187
      12 -> 22        -0.14404
      12 -> 23        -0.13865
 
 Excited state symmetry could not be determined.
 Excited State  18:      Singlet-?Sym    9.7114 eV  127.67 nm  f=0.0052  <S**2>=0.000
      11 -> 15         0.11959
      11 -> 16         0.10874
      11 -> 19        -0.64723
 
 Excited state symmetry could not be determined.
 Excited State  19:      Singlet-?Sym    9.8873 eV  125.40 nm  f=0.0193  <S**2>=0.000
      12 -> 15        -0.14014
      12 -> 21         0.20655
      12 -> 22        -0.60988
      12 -> 23        -0.10752
 
 Excited state symmetry could not be determined.
 Excited State  20:      Singlet-?Sym    9.9781 eV  124.26 nm  f=0.0035  <S**2>=0.000
      12 -> 15        -0.12570
      12 -> 20         0.29870
      12 -> 21         0.49863
      12 -> 22         0.21552
      12 -> 23        -0.18439
 SavETr:  write IOETrn=   770 NScale= 10 NData=  16 NLR=1 LETran=     370.
 FoFJK:  IHMeth= 1 ICntrl=     0 DoSepK=T KAlg= 1 I1Cent= 0 FoldK=F
 FoFJK:  IHMeth= 1 ICntrl=     0 DoSepK=T KAlg= 1 I1Cent= 0 FoldK=F
          IDoAtm=111111
 NEqPCM:  Using equilibrium solvation (IEInf=0, Eps=  78.3553, EpsInf=   1.7778)
          Differentiating once with respect to electric field.
                with respect to dipole field.
          Differentiating once with respect to nuclear coordinates.
          There are     1 degrees of freedom in the 1st order CPHF.  IDoFFX=0.
 FoFJK:  IHMeth= 1 ICntrl=     0 DoSepK=T KAlg= 1 I1Cent= 0 FoldK=F
 LinEq1:  Iter=  0 NonCon=     1 RMS=3.40D-02 Max=6.11D-01
 AX will form     1 AO Fock derivatives at one time.
 FoFJK:  IHMeth= 1 ICntrl=     0 DoSepK=T KAlg= 1 I1Cent= 0 FoldK=F
 LinEq1:  Iter=  1 NonCon=     1 RMS=1.37D-02 Max=2.39D-01
 FoFJK:  IHMeth= 1 ICntrl=     0 DoSepK=T KAlg= 1 I1Cent= 0 FoldK=F
 LinEq1:  Iter=  2 NonCon=     1 RMS=7.93D-03 Max=1.27D-01
 FoFJK:  IHMeth= 1 ICntrl=     0 DoSepK=T KAlg= 1 I1Cent= 0 FoldK=F
 LinEq1:  Iter=  3 NonCon=     1 RMS=5.01D-03 Max=4.61D-02
 FoFJK:  IHMeth= 1 ICntrl=     0 DoSepK=T KAlg= 1 I1Cent= 0 FoldK=F
 LinEq1:  Iter=  4 NonCon=     1 RMS=2.93D-03 Max=3.43D-02
 FoFJK:  IHMeth= 1 ICntrl=     0 DoSepK=T KAlg= 1 I1Cent= 0 FoldK=F
 LinEq1:  Iter=  5 NonCon=     1 RMS=1.04D-03 Max=1.76D-02
 FoFJK:  IHMeth= 1 ICntrl=     0 DoSepK=T KAlg= 1 I1Cent= 0 FoldK=F
 LinEq1:  Iter=  6 NonCon=     1 RMS=2.79D-04 Max=4.20D-03
 FoFJK:  IHMeth= 1 ICntrl=     0 DoSepK=T KAlg= 1 I1Cent= 0 FoldK=F
 LinEq1:  Iter=  7 NonCon=     1 RMS=7.69D-05 Max=1.11D-03
 FoFJK:  IHMeth= 1 ICntrl=     0 DoSepK=T KAlg= 1 I1Cent= 0 FoldK=F
 LinEq1:  Iter=  8 NonCon=     1 RMS=1.64D-05 Max=1.61D-04
 FoFJK:  IHMeth= 1 ICntrl=     0 DoSepK=T KAlg= 1 I1Cent= 0 FoldK=F
 LinEq1:  Iter=  9 NonCon=     1 RMS=3.25D-06 Max=2.22D-05
 FoFJK:  IHMeth= 1 ICntrl=     0 DoSepK=T KAlg= 1 I1Cent= 0 FoldK=F
 LinEq1:  Iter= 10 NonCon=     1 RMS=6.49D-07 Max=5.61D-06
 FoFJK:  IHMeth= 1 ICntrl=     0 DoSepK=T KAlg= 1 I1Cent= 0 FoldK=F
 LinEq1:  Iter= 11 NonCon=     1 RMS=1.27D-07 Max=1.50D-06
 FoFJK:  IHMeth= 1 ICntrl=     0 DoSepK=T KAlg= 1 I1Cent= 0 FoldK=F
 LinEq1:  Iter= 12 NonCon=     1 RMS=2.33D-08 Max=2.59D-07
 FoFJK:  IHMeth= 1 ICntrl=     0 DoSepK=T KAlg= 1 I1Cent= 0 FoldK=F
 LinEq1:  Iter= 13 NonCon=     1 RMS=4.10D-09 Max=4.37D-08
 FoFJK:  IHMeth= 1 ICntrl=     0 DoSepK=T KAlg= 1 I1Cent= 0 FoldK=F
 LinEq1:  Iter= 14 NonCon=     1 RMS=6.55D-10 Max=5.83D-09
 FoFJK:  IHMeth= 1 ICntrl=     0 DoSepK=T KAlg= 1 I1Cent= 0 FoldK=F
 LinEq1:  Iter= 15 NonCon=     0 RMS=9.66D-11 Max=6.44D-10
 Linear equations converged to 1.000D-10 1.000D-09 after    15 iterations.
 FoFJK:  IHMeth= 1 ICntrl=     0 DoSepK=T KAlg= 1 I1Cent= 0 FoldK=F
 End of Minotr Frequency-dependent properties file   721 does not exist.
 End of Minotr Frequency-dependent properties file   722 does not exist.
 D1PCM: PCM CHGder 1st derivatives, ID1Alg=3 FixD1E=F DoIter=F DoCFld=F I1PDM=6.
 Calling FoFJK, ICntrl=      5127 FMM=F ISym2X=0 I1Cent= 0 IOpClX= 0 NMat=1 NMatS=1 NMatT=0.
 FoFJK:  IHMeth= 1 ICntrl=  5127 DoSepK=T KAlg= 1 I1Cent= 0 FoldK=F
 -------------------------------------------------------------------
 Center     Atomic                   Forces (Hartrees/Bohr)
 Number     Number              X              Y              Z
 -------------------------------------------------------------------
      1        6          -0.003797071   -0.021465709   -0.019705469
      2        7           0.008029841    0.006092451    0.015822528
      3        8          -0.018450256    0.008047933   -0.002598290
      4        1           0.004024012    0.008623957    0.006706942
      5        1          -0.002972536   -0.000114715   -0.010300429
      6        1           0.013166010   -0.001183916    0.010074718
 -------------------------------------------------------------------
 Cartesian Forces:  Max     0.021465709 RMS     0.010939537

 GradGradGradGradGradGradGradGradGradGradGradGradGradGradGradGradGradGrad
 Berny optimization.
 Using GEDIIS/GDIIS optimizer.
 Internal  Forces:  Max     0.036096179 RMS     0.012636005
 Search for a local minimum.
 Step number  25 out of a maximum of   25
 All quantities printed in internal units (Hartrees-Bohrs-Radians)
 Mixed Optimization -- RFO/linear search
 Update second derivatives using D2CorX and points   23   24   25
 DE= -8.64D-03 DEPred=-1.64D-02 R= 5.27D-01
 SS=  1.41D+00  RLast= 4.24D-01 DXNew= 7.1352D-01 1.2712D+00
 Trust test= 5.27D-01 RLast= 4.24D-01 DXMaxT set to 7.14D-01
 The second derivative matrix:
                          R1        R2        R3        R4        R5
           R1           0.31024
           R2           0.18581   0.37864
           R3           0.04692   0.03378   0.36972
           R4          -0.00336  -0.01335   0.00275   0.45979
           R5           0.00561   0.00726  -0.01355  -0.00688   0.46754
           A1           0.07096   0.14409  -0.01468  -0.02529   0.01080
           A2           0.00051  -0.09541   0.03664   0.00585  -0.01226
           A3          -0.06064  -0.02859   0.00856   0.00695   0.00001
           A4          -0.01092  -0.02772   0.04900   0.00966  -0.01883
           A5          -0.00424   0.01391  -0.01733  -0.00117   0.00825
           A6          -0.01630  -0.00951   0.00916   0.00479  -0.00280
           D1           0.02065   0.00001   0.00257  -0.00071   0.00203
           D2           0.01719   0.02000   0.02174  -0.00421  -0.00089
           D3          -0.01239  -0.03838  -0.02415   0.00628   0.00120
           D4          -0.01584  -0.01839  -0.00498   0.00278  -0.00172
                          A1        A2        A3        A4        A5
           A1           0.55263
           A2          -0.05897   0.22496
           A3           0.00225   0.05935   0.26495
           A4          -0.04940  -0.00213  -0.06332   0.12174
           A5           0.00258   0.02310   0.02656   0.02488   0.12766
           A6          -0.00325   0.00956  -0.00222   0.01345  -0.01874
           D1          -0.02391  -0.03421  -0.05739   0.00505  -0.00620
           D2           0.03449  -0.05029  -0.05141   0.01718  -0.01030
           D3          -0.03614   0.06078   0.04534  -0.01471   0.01440
           D4           0.02225   0.04471   0.05132  -0.00258   0.01031
                          A6        D1        D2        D3        D4
           A6           0.15315
           D1          -0.01110   0.04338
           D2          -0.00732   0.01474   0.04263
           D3          -0.00060  -0.02854  -0.03209   0.04960
           D4           0.00318  -0.03264  -0.02874   0.02151   0.04995
 Use linear search instead of GDIIS.
     Eigenvalues ---    0.00013   0.02473   0.03936   0.08461   0.10452
     Eigenvalues ---    0.16071   0.22649   0.32086   0.42284   0.45558
     Eigenvalues ---    0.47694   0.744831000.000001000.000001000.00000
 RFO step:  Lambda=-1.87908036D-02 EMin= 1.26331160D-04
 Quartic linear search produced a step of  0.03029.
 Maximum step size (   0.714) exceeded in Quadratic search.
    -- Step size scaled by   0.820
 Iteration  1 RMS(Cart)=  0.09200060 RMS(Int)=  0.08100401
 Iteration  2 RMS(Cart)=  0.07048022 RMS(Int)=  0.00303382
 Iteration  3 RMS(Cart)=  0.00300450 RMS(Int)=  0.00041151
 Iteration  4 RMS(Cart)=  0.00000568 RMS(Int)=  0.00041148
 Iteration  5 RMS(Cart)=  0.00000000 RMS(Int)=  0.00041148
 Variable       Old X    -DE/DX   Delta X   Delta X   Delta X     New X
                                 (Linear)    (Quad)   (Total)
    R1        2.78248  -0.00087   0.00418   0.01967   0.02385   2.80633
    R2        2.41419   0.01211  -0.00348  -0.04978  -0.05326   2.36093
    R3        2.11157  -0.00127  -0.00088   0.00832   0.00745   2.11901
    R4        1.93265  -0.00295  -0.00006  -0.00003  -0.00009   1.93256
    R5        1.92462   0.00099   0.00003  -0.00009  -0.00006   1.92456
    A1        1.95747   0.03610  -0.00169   0.06085   0.05948   2.01696
    A2        1.97636  -0.02262   0.00110  -0.07017  -0.06871   1.90765
    A3        1.96791  -0.00226   0.00218  -0.02379  -0.02105   1.94686
    A4        2.04575  -0.00001  -0.00122   0.02376   0.02180   2.06754
    A5        2.15118  -0.00117   0.00392   0.02043   0.02362   2.17479
    A6        1.98328   0.00053   0.00070  -0.02394  -0.02405   1.95923
    D1       -1.50942  -0.00529   0.00041  -0.35136  -0.35102  -1.86044
    D2        2.13501  -0.00398  -0.00583  -0.39088  -0.39705   1.73796
    D3        2.52234  -0.01426  -0.00211  -0.31070  -0.31247   2.20987
    D4       -0.11641  -0.01295  -0.00835  -0.35022  -0.35850  -0.47492
         Item               Value     Threshold  Converged?
 Maximum Force            0.036096     0.000450     NO 
 RMS     Force            0.012636     0.000300     NO 
 Maximum Displacement     0.246569     0.001800     NO 
 RMS     Displacement     0.157220     0.001200     NO 
 Predicted change in Energy=-1.413483D-02
 Optimization stopped.
    -- Number of steps exceeded,  NStep=  25
    -- Flag reset to prevent archiving.
                           ----------------------------
                           ! Non-Optimized Parameters !
                           ! (Angstroms and Degrees)  !
 --------------------------                            --------------------------
 ! Name  Definition              Value          Derivative Info.                !
 --------------------------------------------------------------------------------
 ! R1    R(1,2)                  1.485          -DE/DX =   -0.0009              !
 ! R2    R(1,3)                  1.2493         -DE/DX =    0.0121              !
 ! R3    R(1,6)                  1.1213         -DE/DX =   -0.0013              !
 ! R4    R(2,4)                  1.0227         -DE/DX =   -0.0029              !
 ! R5    R(2,5)                  1.0184         -DE/DX =    0.001               !
 ! A1    A(2,1,3)              115.563          -DE/DX =    0.0361              !
 ! A2    A(2,1,6)              109.3004         -DE/DX =   -0.0226              !
 ! A3    A(3,1,6)              111.5466         -DE/DX =   -0.0023              !
 ! A4    A(1,2,4)              118.4615         -DE/DX =    0.0                 !
 ! A5    A(1,2,5)              124.6065         -DE/DX =   -0.0012              !
 ! A6    A(4,2,5)              112.2557         -DE/DX =    0.0005              !
 ! D1    D(3,1,2,4)           -106.5952         -DE/DX =   -0.0053              !
 ! D2    D(3,1,2,5)             99.5776         -DE/DX =   -0.004               !
 ! D3    D(6,1,2,4)            126.6163         -DE/DX =   -0.0143              !
 ! D4    D(6,1,2,5)            -27.2109         -DE/DX =   -0.0129              !
 --------------------------------------------------------------------------------
 GradGradGradGradGradGradGradGradGradGradGradGradGradGradGradGradGradGrad

                          Input orientation:                          
 ---------------------------------------------------------------------
 Center     Atomic      Atomic             Coordinates (Angstroms)
 Number     Number       Type             X           Y           Z
 ---------------------------------------------------------------------
      1          6           0       -0.220532    0.375150    0.262971
      2          7           0        1.076112   -0.232037   -0.080658
      3          8           0       -1.181122   -0.123931   -0.415466
      4          1           0        1.337387   -1.088173    0.414026
      5          1           0        1.873679    0.306002   -0.414834
      6          1           0       -0.205754    1.492074    0.234178
 ---------------------------------------------------------------------
                    Distance matrix (angstroms):
                    1          2          3          4          5
     1  C    0.000000
     2  N    1.472427   0.000000
     3  O    1.277533   2.284488   0.000000
     4  H    2.142719   1.022716   2.821472   0.000000
     5  H    2.202253   1.018466   3.084907   1.708315   0.000000
     6  H    1.117393   2.171373   1.996209   3.011861   2.480328
                    6
     6  H    0.000000
 Symmetry turned off by external request.
 Stoichiometry    CH3NO
 Framework group  C1[X(CH3NO)]
 Deg. of freedom    12
 Full point group                 C1      NOp   1
 Rotational constants (GHZ):     56.4852640     10.8063803      9.6251729

 **********************************************************************

            Population analysis using the SCF density.

 **********************************************************************

 Alpha  occ. eigenvalues --  -19.23904 -14.42117 -10.40172  -1.12394  -0.95890
 Alpha  occ. eigenvalues --   -0.69721  -0.60078  -0.55438  -0.51664  -0.45951
 Alpha  occ. eigenvalues --   -0.35352  -0.32954
 Alpha virt. eigenvalues --   -0.04047   0.01713   0.03396   0.04454   0.06492
 Alpha virt. eigenvalues --    0.08947   0.10254   0.13123   0.14044   0.14379
 Alpha virt. eigenvalues --    0.16485   0.17198   0.19127   0.21106   0.23958
 Alpha virt. eigenvalues --    0.24111   0.26114   0.26701   0.29599   0.30640
 Alpha virt. eigenvalues --    0.32354   0.37011   0.40059   0.42168   0.44675
 Alpha virt. eigenvalues --    0.47215   0.47904   0.49078   0.52212   0.53672
 Alpha virt. eigenvalues --    0.55988   0.57335   0.59882   0.60940   0.66824
 Alpha virt. eigenvalues --    0.67889   0.69644   0.70967   0.75104   0.79538
 Alpha virt. eigenvalues --    0.81361   0.87377   0.91140   1.02086   1.05015
 Alpha virt. eigenvalues --    1.08304   1.11564   1.13975   1.19805   1.21948
 Alpha virt. eigenvalues --    1.27494   1.33039   1.44689   1.46502   1.53909
 Alpha virt. eigenvalues --    1.55537   1.64107   1.73157   1.80594   1.82293
 Alpha virt. eigenvalues --    1.84311   1.92100   1.94080   1.97183   2.03499
 Alpha virt. eigenvalues --    2.07597   2.09987   2.14137   2.17079   2.25903
 Alpha virt. eigenvalues --    2.32510   2.44445   2.53599   2.59888   2.61179
 Alpha virt. eigenvalues --    2.73692   2.88113   3.07651   3.23940   3.39885
 Alpha virt. eigenvalues --    3.41559   3.45237   3.52141   3.64665
          Condensed to atoms (all electrons):
              1          2          3          4          5          6
     1  C    4.637132   0.307662   0.258796  -0.102371  -0.083139   0.162743
     2  N    0.307662   6.158734  -0.080133   0.372113   0.363881  -0.105406
     3  O    0.258796  -0.080133   8.344230   0.009127   0.005027  -0.033075
     4  H   -0.102371   0.372113   0.009127   0.912390  -0.185341   0.026149
     5  H   -0.083139   0.363881   0.005027  -0.185341   0.938716  -0.009169
     6  H    0.162743  -0.105406  -0.033075   0.026149  -0.009169   1.195070
 Mulliken atomic charges:
              1
     1  C    0.819176
     2  N   -0.016851
     3  O   -0.503972
     4  H   -0.032066
     5  H   -0.029975
     6  H   -0.236311
 Sum of Mulliken atomic charges =   0.00000
 Mulliken charges with hydrogens summed into heavy atoms:
              1
     1  C    0.582865
     2  N   -0.078893
     3  O   -0.503972
 Sum of Mulliken charges with hydrogens summed into heavy atoms =   0.00000
 Electronic spatial extent (au):  <R**2>=            154.1385
 Charge=              0.0000 electrons
 Dipole moment (field-independent basis, Debye):
    X=              3.8463    Y=              1.4408    Z=              1.7121  Tot=              4.4499
 Quadrupole moment (field-independent basis, Debye-Ang):
   XX=            -18.7558   YY=            -15.8931   ZZ=            -19.0285
   XY=             -1.0799   XZ=             -1.6666   YZ=             -1.7320
 Traceless Quadrupole moment (field-independent basis, Debye-Ang):
   XX=             -0.8633   YY=              1.9994   ZZ=             -1.1361
   XY=             -1.0799   XZ=             -1.6666   YZ=             -1.7320
 Octapole moment (field-independent basis, Debye-Ang**2):
  XXX=             14.9501  YYY=              0.4870  ZZZ=              4.6515  XYY=              2.5044
  XXY=             -0.5150  XXZ=              0.9555  XZZ=              0.1012  YZZ=             -0.0792
  YYZ=              2.7834  XYZ=             -1.8029
 Hexadecapole moment (field-independent basis, Debye-Ang**3):
 XXXX=           -120.8103 YYYY=            -33.0266 ZZZZ=            -29.4606 XXXY=              5.4174
 XXXZ=            -12.3283 YYYX=              1.7304 YYYZ=             -5.0629 ZZZX=             -5.9336
 ZZZY=             -4.0847 XXYY=            -25.1428 XXZZ=            -26.7756 YYZZ=            -11.6228
 XXYZ=             -3.9509 YYXZ=             -0.9686 ZZXY=              1.7520
 N-N= 6.837097188698D+01 E-N=-5.345845854205D+02  KE= 1.684137715770D+02


 READER, WHETHER YOU BE DILETTANTE OR PROFESSOR ... SHOW YOURSELF TO BE
 MORE HUMAN THAN CRITICAL, AND THEN YOUR PLEASURE WILL INCREASE.
                                           -- DOMENICO SCARLATTI (1738)
 Error termination request processed by link 9999.
 Error termination via Lnk1e in /home/diegoa/progs/g09/l9999.exe at Mon Oct 28 12:51:24 2019.
 Job cpu time:  0 days  5 hours 41 minutes 56.2 seconds.
 File lengths (MBytes):  RWF=     64 Int=      0 D2E=      0 Chk=      8 Scr=      1
