 Entering Gaussian System, Link 0=g09
 Input=td5-opt.com
 Output=td5-opt.log
 Initial command:
 /home/diegoa/progs/g09/l1.exe /home/diegoa/g09scratch/Gau-7098.inp -scrdir=/home/diegoa/g09scratch/
 Default is to use a total of   4 processors:
                                4 via shared-memory
                                1 via Linda
 Entering Link 1 = /home/diegoa/progs/g09/l1.exe PID=      7100.
  
 Copyright (c) 1988,1990,1992,1993,1995,1998,2003,2009, Gaussian, Inc.
                  All Rights Reserved.
  
 This is part of the Gaussian(R) 09 program.  It is based on
 the Gaussian(R) 03 system (copyright 2003, Gaussian, Inc.),
 the Gaussian(R) 98 system (copyright 1998, Gaussian, Inc.),
 the Gaussian(R) 94 system (copyright 1995, Gaussian, Inc.),
 the Gaussian 92(TM) system (copyright 1992, Gaussian, Inc.),
 the Gaussian 90(TM) system (copyright 1990, Gaussian, Inc.),
 the Gaussian 88(TM) system (copyright 1988, Gaussian, Inc.),
 the Gaussian 86(TM) system (copyright 1986, Carnegie Mellon
 University), and the Gaussian 82(TM) system (copyright 1983,
 Carnegie Mellon University). Gaussian is a federally registered
 trademark of Gaussian, Inc.
  
 This software contains proprietary and confidential information,
 including trade secrets, belonging to Gaussian, Inc.
  
 This software is provided under written license and may be
 used, copied, transmitted, or stored only in accord with that
 written license.
  
 The following legend is applicable only to US Government
 contracts under FAR:
  
                    RESTRICTED RIGHTS LEGEND
  
 Use, reproduction and disclosure by the US Government is
 subject to restrictions as set forth in subparagraphs (a)
 and (c) of the Commercial Computer Software - Restricted
 Rights clause in FAR 52.227-19.
  
 Gaussian, Inc.
 340 Quinnipiac St., Bldg. 40, Wallingford CT 06492
  
  
 ---------------------------------------------------------------
 Warning -- This program may not be used in any manner that
 competes with the business of Gaussian, Inc. or will provide
 assistance to any competitor of Gaussian, Inc.  The licensee
 of this program is prohibited from giving any competitor of
 Gaussian, Inc. access to this program.  By using this program,
 the user acknowledges that Gaussian, Inc. is engaged in the
 business of creating and licensing software in the field of
 computational chemistry and represents and warrants to the
 licensee that it is not a competitor of Gaussian, Inc. and that
 it will not use this program in any manner prohibited above.
 ---------------------------------------------------------------
  

 Cite this work as:
 Gaussian 09, Revision A.01,
 M. J. Frisch, G. W. Trucks, H. B. Schlegel, G. E. Scuseria, 
 M. A. Robb, J. R. Cheeseman, G. Scalmani, V. Barone, B. Mennucci, 
 G. A. Petersson, H. Nakatsuji, M. Caricato, X. Li, H. P. Hratchian, 
 A. F. Izmaylov, J. Bloino, G. Zheng, J. L. Sonnenberg, M. Hada, 
 M. Ehara, K. Toyota, R. Fukuda, J. Hasegawa, M. Ishida, T. Nakajima, 
 Y. Honda, O. Kitao, H. Nakai, T. Vreven, J. A. Montgomery, Jr., 
 J. E. Peralta, F. Ogliaro, M. Bearpark, J. J. Heyd, E. Brothers, 
 K. N. Kudin, V. N. Staroverov, R. Kobayashi, J. Normand, 
 K. Raghavachari, A. Rendell, J. C. Burant, S. S. Iyengar, J. Tomasi, 
 M. Cossi, N. Rega, J. M. Millam, M. Klene, J. E. Knox, J. B. Cross, 
 V. Bakken, C. Adamo, J. Jaramillo, R. Gomperts, R. E. Stratmann, 
 O. Yazyev, A. J. Austin, R. Cammi, C. Pomelli, J. W. Ochterski, 
 R. L. Martin, K. Morokuma, V. G. Zakrzewski, G. A. Voth, 
 P. Salvador, J. J. Dannenberg, S. Dapprich, A. D. Daniels, 
 O. Farkas, J. B. Foresman, J. V. Ortiz, J. Cioslowski, 
 and D. J. Fox, Gaussian, Inc., Wallingford CT, 2009.
 
 ******************************************
 Gaussian 09:  EM64L-G09RevA.01  8-May-2009
                28-Oct-2019 
 ******************************************
 %chk=td5-opt.chk
 %NProcShared=4
 Will use up to    4 processors via shared memory.
 Default route:  MP2=Direct MaxDisk=1000GB DenFit
 ----------------------------------------------------------------------
 # cam-b3lyp/aug-cc-pvdz opt(maxcycle=100) nosymm td(root=5,nstates=20)
  SCRF=PCM int(grid=ultrafine)
 ----------------------------------------------------------------------
 1/6=100,14=-1,18=20,19=15,26=3,38=1/1,3;
 2/9=110,12=2,15=1,17=6,18=5,40=1/2;
 3/5=16,7=10,11=2,16=1,25=1,30=1,70=2201,71=1,72=1,74=-40,75=-5,82=47/1,2,8,3;
 4//1;
 5/5=2,38=5/2;
 8/6=1,10=1,107=5,108=20/1;
 9/8=5,15=2,41=20,42=1/14;
 10/5=4,31=1/2;
 6/7=2,8=2,9=2,10=2/1;
 7/12=6,13=5,14=5,30=1/1,2,3,16;
 1/6=100,14=-1,18=20,19=15/3(2);
 2/9=110,15=1/2;
 99//99;
 2/9=110,15=1/2;
 3/5=16,7=10,11=2,16=1,25=1,30=1,70=2205,71=1,74=-40,75=-5,82=47/1,2,8,3;
 4/5=5,16=3/1;
 5/5=2,38=5/2;
 8/6=1,10=1,107=5,108=20/1;
 9/8=5,15=2,41=20,42=1,49=4/14;
 10/5=4,31=1/2;
 7/12=6,13=5,14=5,30=1/1,2,3,16;
 1/6=100,14=-1,18=20,19=15/3(-8);
 2/9=110,15=1/2;
 6/7=2,8=2,9=2,10=2/1;
 99//99;
 -----
 Title
 -----
 Symbolic Z-matrix:
 Charge =  0 Multiplicity = 1
 6                    -0.14841   0.38941  -0.00001 
 7                     1.07589  -0.16092   0.00006 
 8                    -1.19901  -0.24437  -0.00008 
 1                     1.18201  -1.16665   0.00009 
 1                     1.90298   0.41696   0.00015 
 1                    -0.13369   1.49466  -0.00001 
 

 GradGradGradGradGradGradGradGradGradGradGradGradGradGradGradGradGradGrad
 Berny optimization.
 Initialization pass.
                           ----------------------------
                           !    Initial Parameters    !
                           ! (Angstroms and Degrees)  !
 --------------------------                            --------------------------
 ! Name  Definition              Value          Derivative Info.                !
 --------------------------------------------------------------------------------
 ! R1    R(1,2)                  1.3423         estimate D2E/DX2                !
 ! R2    R(1,3)                  1.227          estimate D2E/DX2                !
 ! R3    R(1,6)                  1.1053         estimate D2E/DX2                !
 ! R4    R(2,4)                  1.0113         estimate D2E/DX2                !
 ! R5    R(2,5)                  1.009          estimate D2E/DX2                !
 ! A1    A(2,1,3)              124.6949         estimate D2E/DX2                !
 ! A2    A(2,1,6)              113.4417         estimate D2E/DX2                !
 ! A3    A(3,1,6)              121.8634         estimate D2E/DX2                !
 ! A4    A(1,2,4)              120.2276         estimate D2E/DX2                !
 ! A5    A(1,2,5)              120.8539         estimate D2E/DX2                !
 ! A6    A(4,2,5)              118.9185         estimate D2E/DX2                !
 ! D1    D(3,1,2,4)             -0.0023         estimate D2E/DX2                !
 ! D2    D(3,1,2,5)           -179.9974         estimate D2E/DX2                !
 ! D3    D(6,1,2,4)            179.9982         estimate D2E/DX2                !
 ! D4    D(6,1,2,5)              0.0031         estimate D2E/DX2                !
 --------------------------------------------------------------------------------
 Trust Radius=3.00D-01 FncErr=1.00D-07 GrdErr=1.00D-06
 Number of steps in this run= 100 maximum allowed number of steps= 100.
 GradGradGradGradGradGradGradGradGradGradGradGradGradGradGradGradGradGrad

                          Input orientation:                          
 ---------------------------------------------------------------------
 Center     Atomic      Atomic             Coordinates (Angstroms)
 Number     Number       Type             X           Y           Z
 ---------------------------------------------------------------------
      1          6           0       -0.148406    0.389411   -0.000008
      2          7           0        1.075890   -0.160923    0.000060
      3          8           0       -1.199011   -0.244372   -0.000076
      4          1           0        1.182007   -1.166648    0.000092
      5          1           0        1.902982    0.416959    0.000154
      6          1           0       -0.133692    1.494659   -0.000005
 ---------------------------------------------------------------------
                    Distance matrix (angstroms):
                    1          2          3          4          5
     1  C    0.000000
     2  N    1.342300   0.000000
     3  O    1.226969   2.276431   0.000000
     4  H    2.047271   1.011308   2.553398   0.000000
     5  H    2.051573   1.008974   3.171706   1.740005   0.000000
     6  H    1.105346   2.050376   2.039395   2.968774   2.304231
                    6
     6  H    0.000000
 Symmetry turned off by external request.
 Stoichiometry    CH3NO
 Framework group  C1[X(CH3NO)]
 Deg. of freedom    12
 Full point group                 C1      NOp   1
 Rotational constants (GHZ):     73.1415518     11.3903967      9.8555789
 Standard basis: Aug-CC-pVDZ (5D, 7F)
 Integral buffers will be    131072 words long.
 Raffenetti 2 integral format.
 Two-electron integral symmetry is turned off.
    96 basis functions,   162 primitive gaussians,   102 cartesian basis functions
    12 alpha electrons       12 beta electrons
       nuclear repulsion energy        71.1695258840 Hartrees.
 NAtoms=    6 NActive=    6 NUniq=    6 SFac= 7.50D-01 NAtFMM=   80 NAOKFM=F Big=F
 Standard density basis: Auto (5D, 7F)
   327 Density fitting functions
 ------------------------------------------------------------------------------
 Polarizable Continuum Model (PCM)
 =================================
 Model                : PCM.
 Atomic radii         : UFF (Universal Force Field).
 Polarization charges : Total charges.
 Charge compensation  : None.
 Solution method      : Matrix inversion.
 Cavity type          : Scaled VdW (van der Waals Surface) (Alpha=1.100).
 Cavity algorithm     : GePol (No added spheres)
                        Default sphere list used, NSphG=    6.
                        Lebedev-Laikov grids with approx.  5.0 points / Ang**2.
                        Smoothing algorithm: Karplus/York (Gamma=1.0000).
                        Polarization charges: spherical gaussians, with
                                              point-specific exponents (IZeta= 3).
                        Self-potential: point-specific (ISelfS= 7).
                        Self-field    : sphere-specific E.n sum rule (ISelfD= 2).
 1st derivatives      : Analytical E(r).r(x)/FMM algorithm (CHGder, D1EAlg=3).
                        Cavity 1st derivative terms included.
 Solvent              : Water, Eps=  78.355300 Eps(inf)=   1.777849
 ------------------------------------------------------------------------------
 Spheres list:
 ISph  on   Nord    Re0     Alpha      Xe            Ye            Ze
    1   C      1    1.926   1.100     -0.148406      0.389411     -0.000008
    2   N      2    1.830   1.100      1.075890     -0.160923      0.000060
    3   O      3    1.750   1.100     -1.199011     -0.244372     -0.000076
    4   H      4    1.443   1.100      1.182007     -1.166648      0.000092
    5   H      5    1.443   1.100      1.902982      0.416959      0.000154
    6   H      6    1.443   1.100     -0.133692      1.494659     -0.000005
 ------------------------------------------------------------------------------
 One-electron integrals computed using PRISM.
 NBasis=    96 RedAO= T  NBF=    96
 NBsUse=    96 1.00D-06 NBFU=    96
 Harris functional with IExCor=20419 diagonalized for initial guess.
 ExpMin= 2.97D-02 ExpMax= 1.17D+04 ExpMxC= 4.01D+02 IAcc=3 IRadAn=         5 AccDes= 0.00D+00
 HarFok:  IExCor=20419 AccDes= 0.00D+00 IRadAn=         5 IDoV= 1
 ScaDFX=  1.000000  1.000000  1.000000  1.000000
 FoFCou: FMM=F IPFlag=           0 FMFlag=      100000 FMFlg1=           0
         NFxFlg=           0 DoJE=T BraDBF=F KetDBF=T FulRan=T
         Omega=  0.000000  0.000000  1.000000  0.000000  0.000000 ICntrl=     500 IOpCl=  0
         NMat0=    1 NMatS0=    1 NMatT0=    0 NMatD0=    1 NMtDS0=    0 NMtDT0=    0
         I1Cent=           4 NGrid=           0.
 Symmetry not used in FoFCou.
 Requested convergence on RMS density matrix=1.00D-08 within 128 cycles.
 Requested convergence on MAX density matrix=1.00D-06.
 Requested convergence on             energy=1.00D-06.
 No special actions if energy rises.
 FoFJK:  IHMeth= 1 ICntrl=     0 DoSepK=T KAlg= 1 I1Cent= 0 FoldK=F
 FoFJK:  IHMeth= 1 ICntrl=     0 DoSepK=T KAlg= 1 I1Cent= 0 FoldK=F
 FoFJK:  IHMeth= 1 ICntrl=     0 DoSepK=T KAlg= 1 I1Cent= 0 FoldK=F
 FoFJK:  IHMeth= 1 ICntrl=     0 DoSepK=T KAlg= 1 I1Cent= 0 FoldK=F
 FoFJK:  IHMeth= 1 ICntrl=     0 DoSepK=T KAlg= 1 I1Cent= 0 FoldK=F
 FoFJK:  IHMeth= 1 ICntrl=     0 DoSepK=T KAlg= 1 I1Cent= 0 FoldK=F
 FoFJK:  IHMeth= 1 ICntrl=     0 DoSepK=T KAlg= 1 I1Cent= 0 FoldK=F
 FoFJK:  IHMeth= 1 ICntrl=     0 DoSepK=T KAlg= 1 I1Cent= 0 FoldK=F
 FoFJK:  IHMeth= 1 ICntrl=     0 DoSepK=T KAlg= 1 I1Cent= 0 FoldK=F
 FoFJK:  IHMeth= 1 ICntrl=     0 DoSepK=T KAlg= 1 I1Cent= 0 FoldK=F
 FoFJK:  IHMeth= 1 ICntrl=     0 DoSepK=T KAlg= 1 I1Cent= 0 FoldK=F
 Error on total polarization charges =  0.01050
 SCF Done:  E(RCAM-B3LYP) =  -169.864201704     A.U. after   11 cycles
             Convg  =    0.4600D-08             -V/T =  2.0064
 ExpMin= 2.97D-02 ExpMax= 1.17D+04 ExpMxC= 4.01D+02 IAcc=3 IRadAn=         5 AccDes= 0.00D+00
 HarFok:  IExCor=  205 AccDes= 0.00D+00 IRadAn=         5 IDoV=-2
 ScaDFX=  1.000000  1.000000  1.000000  1.000000
 Range of M.O.s used for correlation:     4    96
 NBasis=    96 NAE=    12 NBE=    12 NFC=     3 NFV=     0
 NROrb=     93 NOA=     9 NOB=     9 NVA=    84 NVB=    84

 **** Warning!!: The largest alpha MO coefficient is  0.18832976D+02

 NEqPCM:  Using equilibrium solvation (IEInf=0, Eps=  78.3553, EpsInf=   1.7778)
    80 initial guesses have been made.
 Convergence on wavefunction:    0.000001000000000
 Iteration     1 Dimension    80 NMult    80
 CISAX will form    80 AO SS matrices at one time.
 FoFJK:  IHMeth= 1 ICntrl=     0 DoSepK=T KAlg= 1 I1Cent= 0 FoldK=F
 FoFJK:  IHMeth= 1 ICntrl=     0 DoSepK=T KAlg= 1 I1Cent= 0 FoldK=F
 New state      1 was old state      6
 New state      2 was old state      1
 New state      3 was old state      2
 New state      4 was old state      3
 New state      6 was old state      4
 New state      8 was old state     11
 New state     10 was old state      8
 New state     11 was old state     10
 New state     13 was old state     14
 New state     14 was old state     13
 No map to state     17
 New state     20 was old state     17
 Iteration     2 Dimension   120 NMult   120
 FoFJK:  IHMeth= 1 ICntrl=     0 DoSepK=T KAlg= 1 I1Cent= 0 FoldK=F
 FoFJK:  IHMeth= 1 ICntrl=     0 DoSepK=T KAlg= 1 I1Cent= 0 FoldK=F
 New state      7 was old state      8
 New state      8 was old state      7
 New state     13 was old state     14
 New state     14 was old state     13
 New state     16 was old state     17
 New state     17 was old state     16
 New state     19 was old state     20
 New state     20 was old state     19
 Iteration     3 Dimension   160 NMult   160
 FoFJK:  IHMeth= 1 ICntrl=     0 DoSepK=T KAlg= 1 I1Cent= 0 FoldK=F
 FoFJK:  IHMeth= 1 ICntrl=     0 DoSepK=T KAlg= 1 I1Cent= 0 FoldK=F
 Iteration     4 Dimension   200 NMult   200
 FoFJK:  IHMeth= 1 ICntrl=     0 DoSepK=T KAlg= 1 I1Cent= 0 FoldK=F
 FoFJK:  IHMeth= 1 ICntrl=     0 DoSepK=T KAlg= 1 I1Cent= 0 FoldK=F
 Iteration     5 Dimension   240 NMult   240
 FoFJK:  IHMeth= 1 ICntrl=     0 DoSepK=T KAlg= 1 I1Cent= 0 FoldK=F
 FoFJK:  IHMeth= 1 ICntrl=     0 DoSepK=T KAlg= 1 I1Cent= 0 FoldK=F
 Iteration     6 Dimension   280 NMult   280
 FoFJK:  IHMeth= 1 ICntrl=     0 DoSepK=T KAlg= 1 I1Cent= 0 FoldK=F
 FoFJK:  IHMeth= 1 ICntrl=     0 DoSepK=T KAlg= 1 I1Cent= 0 FoldK=F
 Iteration     7 Dimension   306 NMult   306
 FoFJK:  IHMeth= 1 ICntrl=     0 DoSepK=T KAlg= 1 I1Cent= 0 FoldK=F
 FoFJK:  IHMeth= 1 ICntrl=     0 DoSepK=T KAlg= 1 I1Cent= 0 FoldK=F
 Iteration     8 Dimension   310 NMult   310
 FoFJK:  IHMeth= 1 ICntrl=     0 DoSepK=T KAlg= 1 I1Cent= 0 FoldK=F
 FoFJK:  IHMeth= 1 ICntrl=     0 DoSepK=T KAlg= 1 I1Cent= 0 FoldK=F
 ***********************************************************************
 Excited states from <AA,BB:AA,BB> singles matrix:
 ***********************************************************************
 
 Ground to excited state transition electric dipole moments (Au):
       state          X           Y           Z        Dip. S.      Osc.
         1         0.0000      0.0000      0.0822      0.0068      0.0010
         2         0.0464      0.1473      0.0001      0.0238      0.0041
         3        -0.0001      0.0000      0.2981      0.0889      0.0154
         4         1.3664      0.0327      0.0001      1.8682      0.3332
         5        -0.3274      0.8521      0.0000      0.8333      0.1562
         6         0.0000     -0.0001      0.0624      0.0039      0.0007
         7         0.7165      0.2569     -0.0001      0.5794      0.1134
         8        -0.0001     -0.0001     -0.4373      0.1912      0.0377
         9         0.0000      0.0000      0.1922      0.0369      0.0076
        10        -0.1655     -0.0543      0.0000      0.0303      0.0064
        11         0.1199     -0.1249      0.0000      0.0300      0.0066
        12         0.0000      0.0000      0.1840      0.0338      0.0076
        13        -0.0770     -0.0200     -0.0001      0.0063      0.0014
        14         0.0000      0.0000     -0.2236      0.0500      0.0115
        15         0.1673      0.0592      0.0000      0.0315      0.0077
        16         0.0000      0.0000     -0.0739      0.0055      0.0014
        17         0.0000      0.0000     -0.1805      0.0326      0.0082
        18        -0.0001     -0.0002     -0.1090      0.0119      0.0030
        19        -0.1834     -0.3992     -0.0001      0.1930      0.0497
        20        -0.0001     -0.0002      0.1933      0.0374      0.0096
 Ground to excited state transition velocity dipole moments (Au):
       state          X           Y           Z        Dip. S.      Osc.
         1         0.0000      0.0000     -0.0210      0.0004      0.0014
         2        -0.0100     -0.0389      0.0000      0.0016      0.0042
         3         0.0000      0.0000     -0.0748      0.0056      0.0144
         4        -0.3597     -0.0077      0.0000      0.1295      0.3227
         5         0.0919     -0.2362      0.0000      0.0642      0.1522
         6         0.0000      0.0000     -0.0185      0.0003      0.0008
         7        -0.2085     -0.0741      0.0000      0.0490      0.1112
         8         0.0000      0.0000      0.1255      0.0158      0.0356
         9         0.0000      0.0000     -0.0607      0.0037      0.0080
        10         0.0437      0.0149      0.0000      0.0021      0.0044
        11        -0.0375      0.0398      0.0000      0.0030      0.0060
        12         0.0000      0.0000     -0.0591      0.0035      0.0070
        13         0.0160      0.0060      0.0000      0.0003      0.0006
        14         0.0000      0.0000      0.0774      0.0060      0.0116
        15        -0.0606     -0.0149      0.0000      0.0039      0.0071
        16         0.0000      0.0000      0.0288      0.0008      0.0015
        17         0.0000      0.0000      0.0719      0.0052      0.0092
        18         0.0000      0.0001      0.0307      0.0009      0.0016
        19         0.0672      0.1554      0.0000      0.0287      0.0495
        20         0.0000      0.0001     -0.0730      0.0053      0.0092
 Ground to excited state transition magnetic dipole moments (Au):
       state          X           Y           Z
         1        -0.9740     -0.3873     -0.0001
         2         0.0000      0.0001      0.5412
         3         0.0064      0.5643     -0.0001
         4         0.0000      0.0000      0.2587
         5         0.0000      0.0000     -0.1128
         6         0.0418     -0.0090      0.0000
         7         0.0000      0.0001      0.5025
         8        -0.0404      0.3354     -0.0001
         9        -0.0626      0.1138      0.0000
        10         0.0000      0.0000      0.0845
        11         0.0000     -0.0001     -0.0164
        12         0.1077     -0.2556      0.0000
        13         0.0000     -0.0001      0.1960
        14        -0.0774     -0.5400     -0.0001
        15         0.0000      0.0000     -0.3668
        16        -0.9732      0.8013      0.0000
        17         0.2623     -0.6644      0.0000
        18         0.1768     -0.5239      0.0000
        19        -0.0001      0.0004     -0.0263
        20         0.0035     -0.1046      0.0000
 <0|del|b> * <b|rxdel|0> + <0|del|b> * <b|delr+rdel|0>
 Rotatory Strengths (R) in cgs (10**-40 erg-esu-cm/Gauss)
       state          XX          YY          ZZ    R(velocity)
         1         0.0011      0.0052      0.0017      0.0027
 Total R(velocity) tensor for State=          1
                 1             2             3 
      1   0.110443D-02 -0.115851D-02  0.000000D+00
      2   0.103432D-02  0.523382D-02  0.000000D+00
      3  -0.288462D+02 -0.130520D+02  0.172735D-02
         2        -0.0262     -0.0048      0.0006     -0.0101
 Total R(velocity) tensor for State=          2
                 1             2             3 
      1  -0.262268D-01 -0.186277D-02  0.253178D+02
      2  -0.758332D-02 -0.484289D-02  0.199546D+02
      3   0.424875D+01 -0.109556D+01  0.632867D-03
         3         0.0277      0.0057      0.0007      0.0114
 Total R(velocity) tensor for State=          3
                 1             2             3 
      1   0.277001D-01 -0.566982D-02  0.409280D-05
      2   0.784762D-02  0.574073D-02  0.190879D-05
      3  -0.182200D+01  0.969135D+01  0.681105D-03
         4        -0.0107     -0.0090      0.0046     -0.0050
 Total R(velocity) tensor for State=          4
                 1             2             3 
      1  -0.106549D-01 -0.119266D-01  0.194034D+03
      2   0.367718D-02 -0.903324D-02 -0.619726D+02
      3  -0.598927D+00  0.280613D+02  0.458176D-02
         5        -0.0005      0.0009     -0.0028     -0.0008
 Total R(velocity) tensor for State=          5
                 1             2             3 
      1  -0.548710D-03 -0.589568D-03 -0.224316D+02
      2   0.115585D-02  0.949854D-03  0.298328D+02
      3   0.190214D+02  0.739973D+01 -0.276521D-02
         6        -0.0017     -0.0008      0.0008     -0.0006
 Total R(velocity) tensor for State=          6
                 1             2             3 
      1  -0.171410D-02 -0.718180D-03  0.000000D+00
      2  -0.516912D-02 -0.803579D-03  0.000000D+00
      3  -0.135621D+01  0.415202D+00  0.809637D-03
         7         0.0005      0.0149      0.0101      0.0085
 Total R(velocity) tensor for State=          7
                 1             2             3 
      1   0.538735D-03  0.436639D-01  0.207254D+03
      2  -0.587463D-02  0.148685D-01 -0.760412D+01
      3  -0.620806D+01  0.174641D+02  0.101053D-01
         8        -0.0129     -0.0141      0.0037     -0.0078
 Total R(velocity) tensor for State=          8
                 1             2             3 
      1  -0.128824D-01 -0.378815D-01  0.107358D-04
      2   0.661368D-02 -0.141422D-01  0.000000D+00
      3   0.618290D+01 -0.331765D+02  0.374961D-02
         9         0.0012      0.0000     -0.0007      0.0002
 Total R(velocity) tensor for State=          9
                 1             2             3 
      1   0.118168D-02 -0.139574D-02  0.000000D+00
      2  -0.561123D-03  0.363601D-04  0.000000D+00
      3  -0.380971D+01  0.320862D-03 -0.677637D-03
        10        -0.0001      0.0006     -0.0003      0.0001
 Total R(velocity) tensor for State=         10
                 1             2             3 
      1  -0.741230D-04 -0.703752D-03 -0.104572D+02
      2  -0.247265D-03  0.616596D-03 -0.124592D+01
      3  -0.266487D+01  0.782856D+01 -0.319292D-03
        11        -0.0002     -0.0045     -0.0009     -0.0018
 Total R(velocity) tensor for State=         11
                 1             2             3 
      1  -0.201066D-03 -0.623724D-02 -0.169255D+02
      2  -0.804807D-02 -0.446040D-02  0.871933D+01
      3   0.899208D+00  0.846471D+00 -0.886715D-03
        12         0.0002      0.0048     -0.0002      0.0016
 Total R(velocity) tensor for State=         12
                 1             2             3 
      1   0.171601D-03  0.702666D-02  0.000000D+00
      2   0.780809D-02  0.476047D-02  0.106634D-05
      3   0.638446D+00  0.294072D+01 -0.214292D-03
        13         0.0026      0.0061     -0.0017      0.0023
 Total R(velocity) tensor for State=         13
                 1             2             3 
      1   0.259713D-02  0.408561D-02 -0.275256D+01
      2  -0.358300D-02  0.606983D-02  0.878597D+00
      3   0.841917D+00 -0.225424D+01 -0.172814D-02
        14        -0.0026     -0.0056      0.0025     -0.0019
 Total R(velocity) tensor for State=         14
                 1             2             3 
      1  -0.260672D-02 -0.326675D-02  0.000000D+00
      2   0.296628D-02 -0.564343D-02  0.000000D+00
      3   0.170893D+02  0.352193D+02  0.247310D-02
        15         0.0005     -0.0005     -0.0013     -0.0004
 Total R(velocity) tensor for State=         15
                 1             2             3 
      1   0.498560D-03 -0.266128D-02 -0.157223D+02
      2   0.203963D-03 -0.545157D-03  0.696253D+01
      3  -0.132758D+01  0.538753D+01 -0.130193D-02
        16        -0.0032      0.0013     -0.0005     -0.0008
 Total R(velocity) tensor for State=         16
                 1             2             3 
      1  -0.321190D-02  0.191328D-02  0.000000D+00
      2  -0.360450D-02  0.132653D-02  0.000000D+00
      3   0.169369D+02 -0.190568D+02 -0.458219D-03
        17        -0.0018      0.0014     -0.0032     -0.0012
 Total R(velocity) tensor for State=         17
                 1             2             3 
      1  -0.176278D-02 -0.530958D-03  0.000000D+00
      2  -0.143895D-02  0.140598D-02  0.000000D+00
      3  -0.264182D+02  0.180162D+02 -0.320837D-02
        18        -0.0535      0.0010     -0.0149     -0.0225
 Total R(velocity) tensor for State=         18
                 1             2             3 
      1  -0.535376D-01  0.370267D-01 -0.212725D-04
      2   0.393710D-02  0.993092D-03 -0.879304D-05
      3  -0.761796D+01  0.954170D+01 -0.149371D-01
        19         0.0616     -0.0061      0.0325      0.0293
 Total R(velocity) tensor for State=         19
                 1             2             3 
      1   0.615593D-01 -0.150193D-01 -0.588022D+02
      2   0.211484D-01 -0.605823D-02 -0.156468D+02
      3   0.539487D+02 -0.233285D+02  0.325293D-01
        20        -0.0084      0.0075     -0.0141     -0.0050
 Total R(velocity) tensor for State=         20
                 1             2             3 
      1  -0.836612D-02 -0.857233D-02 -0.163683D-04
      2  -0.260364D-01  0.746043D-02 -0.750953D-05
      3   0.248904D+00 -0.112231D+02 -0.141153D-01
 1/2[<0|r|b>*<b|rxdel|0> + (<0|rxdel|b>*<b|r|0>)*]
 Rotatory Strengths (R) in cgs (10**-40 erg-esu-cm/Gauss)
       state          XX          YY          ZZ     R(length)     R(au)
         1         0.0061     -0.0009      0.0032      0.0028      0.0000
         2         0.0008     -0.0110     -0.0207     -0.0103      0.0000
         3         0.0002      0.0114      0.0229      0.0115      0.0000
         4        -0.0015      0.0002     -0.0141     -0.0051      0.0000
         5         0.0016     -0.0029     -0.0011     -0.0008      0.0000
         6        -0.0003     -0.0006     -0.0008     -0.0006      0.0000
         7         0.0216     -0.0158      0.0206      0.0088      0.0000
         8        -0.0039      0.0178     -0.0379     -0.0080      0.0000
         9        -0.0016      0.0005      0.0016      0.0002      0.0000
        10         0.0006      0.0000     -0.0002      0.0001      0.0000
        11        -0.0017     -0.0046      0.0005     -0.0019      0.0000
        12         0.0029      0.0041     -0.0019      0.0017      0.0000
        13        -0.0015     -0.0021      0.0098      0.0021      0.0000
        14         0.0011      0.0038     -0.0101     -0.0017      0.0000
        15        -0.0012      0.0004     -0.0003     -0.0004      0.0000
        16         0.0041     -0.0042     -0.0024     -0.0009      0.0000
        17        -0.0024     -0.0064      0.0048     -0.0013      0.0000
        18         0.0155     -0.0815     -0.0007     -0.0222      0.0000
        19        -0.0112      0.0993     -0.0012      0.0290      0.0001
        20         0.0003     -0.0176      0.0025     -0.0049      0.0000
  1/2[<0|del|b>*<b|r|0> + (<0|r|b>*<b|del|0>)*] (Au)
       state          X           Y           Z        Dip. S.   Osc.(frdel)
         1         0.0000      0.0000     -0.0017      0.0017      0.0011
         2        -0.0005     -0.0057      0.0000      0.0062      0.0041
         3         0.0000      0.0000     -0.0223      0.0223      0.0149
         4        -0.4915     -0.0003      0.0000      0.4918      0.3279
         5        -0.0301     -0.2012      0.0000      0.2313      0.1542
         6         0.0000      0.0000     -0.0012      0.0012      0.0008
         7        -0.1494     -0.0190      0.0000      0.1684      0.1123
         8         0.0000      0.0000     -0.0549      0.0549      0.0366
         9         0.0000      0.0000     -0.0117      0.0117      0.0078
        10        -0.0072     -0.0008      0.0000      0.0080      0.0054
        11        -0.0045     -0.0050      0.0000      0.0095      0.0063
        12         0.0000      0.0000     -0.0109      0.0109      0.0072
        13        -0.0012     -0.0001      0.0000      0.0013      0.0009
        14         0.0000      0.0000     -0.0173      0.0173      0.0115
        15        -0.0101     -0.0009      0.0000      0.0110      0.0073
        16         0.0000      0.0000     -0.0021      0.0021      0.0014
        17         0.0000      0.0000     -0.0130      0.0130      0.0087
        18         0.0000      0.0000     -0.0033      0.0033      0.0022
        19        -0.0123     -0.0620      0.0000      0.0744      0.0496
        20         0.0000      0.0000     -0.0141      0.0141      0.0094
 Ground to excited state transition densities written to RWF  633

 Excitation energies and oscillator strengths:
 
 Excited state symmetry could not be determined.
 Excited State   1:      Singlet-?Sym    5.7585 eV  215.31 nm  f=0.0010  <S**2>=0.000
      12 -> 16         0.67201
      12 -> 17        -0.19817
 
 Excited state symmetry could not be determined.
 Excited State   2:      Singlet-?Sym    6.9828 eV  177.56 nm  f=0.0041  <S**2>=0.000
      11 -> 16         0.21060
      12 -> 13         0.58280
      12 -> 15         0.24535
      12 -> 18        -0.11639
      12 -> 20        -0.11128
 
 Excited state symmetry could not be determined.
 Excited State   3:      Singlet-?Sym    7.0555 eV  175.73 nm  f=0.0154  <S**2>=0.000
      11 -> 13         0.66495
      11 -> 14         0.10376
      11 -> 19        -0.13325
      11 -> 20        -0.13321
 
 Excited state symmetry could not be determined.
 Excited State   4:      Singlet-?Sym    7.2786 eV  170.34 nm  f=0.3332  <S**2>=0.000
      11 -> 16         0.55414
      11 -> 17        -0.24884
      12 -> 13        -0.12092
      12 -> 14         0.24545
      12 -> 15        -0.13901
      12 -> 18         0.10071
 
 Excited state symmetry could not be determined.
 Excited State   5:      Singlet-?Sym    7.6531 eV  162.01 nm  f=0.1562  <S**2>=0.000
      11 -> 16        -0.16103
      12 -> 14         0.58622
      12 -> 15         0.25123
      12 -> 18        -0.12116
      12 -> 19        -0.13061
      12 -> 21        -0.10057
 This state for optimization and/or second-order correction.
 Copying the excited state density for this state as the 1-particle RhoCI density.
 
 Excited state symmetry could not be determined.
 Excited State   6:      Singlet-?Sym    7.7885 eV  159.19 nm  f=0.0007  <S**2>=0.000
      11 -> 13        -0.10747
      11 -> 14         0.63831
      11 -> 15         0.18600
      11 -> 21        -0.15284
 
 Excited state symmetry could not be determined.
 Excited State   7:      Singlet-?Sym    7.9863 eV  155.25 nm  f=0.1134  <S**2>=0.000
      11 -> 16         0.13445
      12 -> 13        -0.34178
      12 -> 14        -0.17914
      12 -> 15         0.50236
      12 -> 18        -0.23171
 
 Excited state symmetry could not be determined.
 Excited State   8:      Singlet-?Sym    8.0390 eV  154.23 nm  f=0.0377  <S**2>=0.000
      11 -> 14        -0.17832
      11 -> 15         0.64039
      11 -> 18        -0.16359
      11 -> 23        -0.10793
 
 Excited state symmetry could not be determined.
 Excited State   9:      Singlet-?Sym    8.3858 eV  147.85 nm  f=0.0076  <S**2>=0.000
      12 -> 16         0.19331
      12 -> 17         0.66986
 
 Excited state symmetry could not be determined.
 Excited State  10:      Singlet-?Sym    8.6828 eV  142.79 nm  f=0.0064  <S**2>=0.000
      11 -> 16         0.28933
      11 -> 17         0.63523
 
 Excited state symmetry could not be determined.
 Excited State  11:      Singlet-?Sym    9.0330 eV  137.26 nm  f=0.0066  <S**2>=0.000
      12 -> 15         0.29463
      12 -> 18         0.61247
      12 -> 19         0.12520
 
 Excited state symmetry could not be determined.
 Excited State  12:      Singlet-?Sym    9.1128 eV  136.05 nm  f=0.0076  <S**2>=0.000
      11 -> 15         0.13499
      11 -> 18         0.65580
      11 -> 24         0.14675
 
 Excited state symmetry could not be determined.
 Excited State  13:      Singlet-?Sym    9.3222 eV  133.00 nm  f=0.0014  <S**2>=0.000
      12 -> 14         0.14982
      12 -> 18        -0.11067
      12 -> 19         0.64827
      12 -> 21        -0.10073
 
 Excited state symmetry could not be determined.
 Excited State  14:      Singlet-?Sym    9.3827 eV  132.14 nm  f=0.0115  <S**2>=0.000
      11 -> 13         0.11837
      11 -> 19         0.67057
 
 Excited state symmetry could not be determined.
 Excited State  15:      Singlet-?Sym    9.9732 eV  124.32 nm  f=0.0077  <S**2>=0.000
      12 -> 13         0.10389
      12 -> 14        -0.10627
      12 -> 20         0.57762
      12 -> 23         0.32350
      12 -> 24         0.10799
 
 Excited state symmetry could not be determined.
 Excited State  16:      Singlet-?Sym   10.1415 eV  122.25 nm  f=0.0014  <S**2>=0.000
       9 -> 16         0.64493
       9 -> 17        -0.18743
      11 -> 20         0.11274
      11 -> 23         0.12451
 
 Excited state symmetry could not be determined.
 Excited State  17:      Singlet-?Sym   10.2406 eV  121.07 nm  f=0.0082  <S**2>=0.000
       9 -> 16        -0.14596
      11 -> 13         0.14259
      11 -> 20         0.61702
      11 -> 21         0.16317
      11 -> 23         0.14752
 
 Excited state symmetry could not be determined.
 Excited State  18:      Singlet-?Sym   10.4822 eV  118.28 nm  f=0.0030  <S**2>=0.000
       9 -> 16        -0.10686
      11 -> 20        -0.15572
      11 -> 23         0.57145
      11 -> 24         0.24050
      11 -> 26        -0.13237
      12 -> 22         0.12950
 
 Excited state symmetry could not be determined.
 Excited State  19:      Singlet-?Sym   10.5065 eV  118.01 nm  f=0.0497  <S**2>=0.000
      11 -> 22        -0.20874
      12 -> 14         0.10823
      12 -> 20        -0.21045
      12 -> 21         0.39660
      12 -> 23         0.40132
      12 -> 24         0.21772
 
 Excited state symmetry could not be determined.
 Excited State  20:      Singlet-?Sym   10.5326 eV  117.72 nm  f=0.0096  <S**2>=0.000
      11 -> 14        -0.11893
      11 -> 20         0.12862
      11 -> 21        -0.34909
      11 -> 23        -0.10406
      12 -> 22         0.54700
      12 -> 25        -0.12297
 SavETr:  write IOETrn=   770 NScale= 10 NData=  16 NLR=1 LETran=     370.
 FoFJK:  IHMeth= 1 ICntrl=     0 DoSepK=T KAlg= 1 I1Cent= 0 FoldK=F
 FoFJK:  IHMeth= 1 ICntrl=     0 DoSepK=T KAlg= 1 I1Cent= 0 FoldK=F
          IDoAtm=111111
 NEqPCM:  Using equilibrium solvation (IEInf=0, Eps=  78.3553, EpsInf=   1.7778)
          Differentiating once with respect to electric field.
                with respect to dipole field.
          Differentiating once with respect to nuclear coordinates.
          There are     1 degrees of freedom in the 1st order CPHF.  IDoFFX=0.
 FoFJK:  IHMeth= 1 ICntrl=     0 DoSepK=T KAlg= 1 I1Cent= 0 FoldK=F
 LinEq1:  Iter=  0 NonCon=     1 RMS=4.10D-02 Max=6.73D-01
 AX will form     1 AO Fock derivatives at one time.
 FoFJK:  IHMeth= 1 ICntrl=     0 DoSepK=T KAlg= 1 I1Cent= 0 FoldK=F
 LinEq1:  Iter=  1 NonCon=     1 RMS=1.68D-02 Max=1.98D-01
 FoFJK:  IHMeth= 1 ICntrl=     0 DoSepK=T KAlg= 1 I1Cent= 0 FoldK=F
 LinEq1:  Iter=  2 NonCon=     1 RMS=1.00D-02 Max=1.19D-01
 FoFJK:  IHMeth= 1 ICntrl=     0 DoSepK=T KAlg= 1 I1Cent= 0 FoldK=F
 LinEq1:  Iter=  3 NonCon=     1 RMS=2.43D-03 Max=2.81D-02
 FoFJK:  IHMeth= 1 ICntrl=     0 DoSepK=T KAlg= 1 I1Cent= 0 FoldK=F
 LinEq1:  Iter=  4 NonCon=     1 RMS=1.49D-03 Max=1.98D-02
 FoFJK:  IHMeth= 1 ICntrl=     0 DoSepK=T KAlg= 1 I1Cent= 0 FoldK=F
 LinEq1:  Iter=  5 NonCon=     1 RMS=2.62D-04 Max=2.83D-03
 FoFJK:  IHMeth= 1 ICntrl=     0 DoSepK=T KAlg= 1 I1Cent= 0 FoldK=F
 LinEq1:  Iter=  6 NonCon=     1 RMS=4.66D-05 Max=3.43D-04
 FoFJK:  IHMeth= 1 ICntrl=     0 DoSepK=T KAlg= 1 I1Cent= 0 FoldK=F
 LinEq1:  Iter=  7 NonCon=     1 RMS=1.00D-05 Max=9.39D-05
 FoFJK:  IHMeth= 1 ICntrl=     0 DoSepK=T KAlg= 1 I1Cent= 0 FoldK=F
 LinEq1:  Iter=  8 NonCon=     1 RMS=1.48D-06 Max=1.27D-05
 FoFJK:  IHMeth= 1 ICntrl=     0 DoSepK=T KAlg= 1 I1Cent= 0 FoldK=F
 LinEq1:  Iter=  9 NonCon=     1 RMS=1.80D-07 Max=1.30D-06
 FoFJK:  IHMeth= 1 ICntrl=     0 DoSepK=T KAlg= 1 I1Cent= 0 FoldK=F
 LinEq1:  Iter= 10 NonCon=     1 RMS=4.04D-08 Max=3.00D-07
 FoFJK:  IHMeth= 1 ICntrl=     0 DoSepK=T KAlg= 1 I1Cent= 0 FoldK=F
 LinEq1:  Iter= 11 NonCon=     1 RMS=7.01D-09 Max=6.41D-08
 FoFJK:  IHMeth= 1 ICntrl=     0 DoSepK=T KAlg= 1 I1Cent= 0 FoldK=F
 LinEq1:  Iter= 12 NonCon=     1 RMS=8.53D-10 Max=7.79D-09
 FoFJK:  IHMeth= 1 ICntrl=     0 DoSepK=T KAlg= 1 I1Cent= 0 FoldK=F
 LinEq1:  Iter= 13 NonCon=     1 RMS=1.38D-10 Max=1.64D-09
 FoFJK:  IHMeth= 1 ICntrl=     0 DoSepK=T KAlg= 1 I1Cent= 0 FoldK=F
 LinEq1:  Iter= 14 NonCon=     0 RMS=1.99D-11 Max=1.87D-10
 Linear equations converged to 1.000D-10 1.000D-09 after    14 iterations.
 FoFJK:  IHMeth= 1 ICntrl=     0 DoSepK=T KAlg= 1 I1Cent= 0 FoldK=F
 End of Minotr Frequency-dependent properties file   721 does not exist.
 End of Minotr Frequency-dependent properties file   722 does not exist.

 **********************************************************************

            Population analysis using the SCF density.

 **********************************************************************

 Alpha  occ. eigenvalues --  -19.20592 -14.43921 -10.37654  -1.13251  -1.00140
 Alpha  occ. eigenvalues --   -0.70900  -0.63283  -0.56221  -0.49948  -0.49027
 Alpha  occ. eigenvalues --   -0.35108  -0.34314
 Alpha virt. eigenvalues --    0.01671   0.03328   0.04398   0.04944   0.07805
 Alpha virt. eigenvalues --    0.08200   0.09546   0.12744   0.14289   0.14951
 Alpha virt. eigenvalues --    0.15949   0.18128   0.20969   0.21113   0.21475
 Alpha virt. eigenvalues --    0.26157   0.27057   0.27879   0.29166   0.35807
 Alpha virt. eigenvalues --    0.35958   0.36487   0.39837   0.44236   0.45521
 Alpha virt. eigenvalues --    0.48141   0.49435   0.51473   0.54114   0.54574
 Alpha virt. eigenvalues --    0.55022   0.57584   0.58384   0.60579   0.66859
 Alpha virt. eigenvalues --    0.68992   0.72108   0.75272   0.80440   0.83460
 Alpha virt. eigenvalues --    0.86149   0.87232   0.91455   1.05604   1.07186
 Alpha virt. eigenvalues --    1.08786   1.12408   1.18207   1.22635   1.26539
 Alpha virt. eigenvalues --    1.30111   1.34930   1.42877   1.49236   1.49240
 Alpha virt. eigenvalues --    1.66239   1.69918   1.71600   1.76712   1.80636
 Alpha virt. eigenvalues --    1.83629   1.87524   2.00351   2.03408   2.05066
 Alpha virt. eigenvalues --    2.10199   2.14980   2.22047   2.22796   2.28727
 Alpha virt. eigenvalues --    2.46313   2.51524   2.55134   2.66073   2.69134
 Alpha virt. eigenvalues --    2.86876   3.02817   3.17882   3.31104   3.40263
 Alpha virt. eigenvalues --    3.45509   3.46312   3.71927   3.77736
          Condensed to atoms (all electrons):
              1          2          3          4          5          6
     1  C    4.808898   0.335984   0.326708  -0.192686  -0.131091   0.034611
     2  N    0.335984   5.856118  -0.065821   0.390049   0.349243  -0.027194
     3  O    0.326708  -0.065821   8.386466   0.001783  -0.002294  -0.092568
     4  H   -0.192686   0.390049   0.001783   1.048857  -0.216210   0.057068
     5  H   -0.131091   0.349243  -0.002294  -0.216210   1.054479  -0.010156
     6  H    0.034611  -0.027194  -0.092568   0.057068  -0.010156   1.330329
 Mulliken atomic charges:
              1
     1  C    0.817577
     2  N    0.161620
     3  O   -0.554274
     4  H   -0.088860
     5  H   -0.043972
     6  H   -0.292090
 Sum of Mulliken atomic charges =   0.00000
 Mulliken charges with hydrogens summed into heavy atoms:
              1
     1  C    0.525486
     2  N    0.028788
     3  O   -0.554274
 Sum of Mulliken charges with hydrogens summed into heavy atoms =   0.00000
 Electronic spatial extent (au):  <R**2>=            146.9405
 Charge=              0.0000 electrons
 Dipole moment (field-independent basis, Debye):
    X=              5.1238    Y=              1.2632    Z=              0.0005  Tot=              5.2772
 Quadrupole moment (field-independent basis, Debye-Ang):
   XX=            -18.5724   YY=            -15.2274   ZZ=            -19.2154
   XY=             -1.5257   XZ=              0.0002   YZ=             -0.0001
 Traceless Quadrupole moment (field-independent basis, Debye-Ang):
   XX=             -0.9007   YY=              2.4444   ZZ=             -1.5436
   XY=             -1.5257   XZ=              0.0002   YZ=             -0.0001
 Octapole moment (field-independent basis, Debye-Ang**2):
  XXX=             17.6895  YYY=             -0.6427  ZZZ=              0.0000  XYY=              3.9508
  XXY=              1.2891  XXZ=              0.0016  XZZ=             -0.7030  YZZ=              0.0247
  YYZ=              0.0003  XYZ=              0.0001
 Hexadecapole moment (field-independent basis, Debye-Ang**3):
 XXXX=           -115.0901 YYYY=            -33.8700 ZZZZ=            -19.6085 XXXY=              1.9779
 XXXZ=             -0.0015 YYYX=             -4.5769 YYYZ=             -0.0004 ZZZX=             -0.0036
 ZZZY=              0.0000 XXYY=            -24.0874 XXZZ=            -26.3725 YYZZ=            -10.2570
 XXYZ=              0.0002 YYXZ=             -0.0008 ZZXY=             -0.0017
 N-N= 7.116952588400D+01 E-N=-5.404459692202D+02  KE= 1.687833827230D+02
 D1PCM: PCM CHGder 1st derivatives, ID1Alg=3 FixD1E=F DoIter=F DoCFld=F I1PDM=6.
 Calling FoFJK, ICntrl=      5127 FMM=F ISym2X=0 I1Cent= 0 IOpClX= 0 NMat=1 NMatS=1 NMatT=0.
 FoFJK:  IHMeth= 1 ICntrl=  5127 DoSepK=T KAlg= 1 I1Cent= 0 FoldK=F
 -------------------------------------------------------------------
 Center     Atomic                   Forces (Hartrees/Bohr)
 Number     Number              X              Y              Z
 -------------------------------------------------------------------
      1        6           0.057888910   -0.036919906    0.000002324
      2        7          -0.038502912    0.015996057   -0.000002894
      3        8          -0.006686163   -0.000229592    0.000000127
      4        1          -0.000998417   -0.012528512    0.000000228
      5        1          -0.000065585    0.005189524    0.000000530
      6        1          -0.011635834    0.028492428   -0.000000315
 -------------------------------------------------------------------
 Cartesian Forces:  Max     0.057888910 RMS     0.020587777

 GradGradGradGradGradGradGradGradGradGradGradGradGradGradGradGradGradGrad
 Berny optimization.
 Internal  Forces:  Max     0.039637933 RMS     0.013984620
 Search for a local minimum.
 Step number   1 out of a maximum of  100
 All quantities printed in internal units (Hartrees-Bohrs-Radians)
 Mixed Optimization -- RFO/linear search
 Second derivative matrix not updated -- first step.
 The second derivative matrix:
                          R1        R2        R3        R4        R5
           R1           0.56693
           R2           0.00000   0.92361
           R3           0.00000   0.00000   0.33098
           R4           0.00000   0.00000   0.00000   0.45754
           R5           0.00000   0.00000   0.00000   0.00000   0.46145
           A1           0.00000   0.00000   0.00000   0.00000   0.00000
           A2           0.00000   0.00000   0.00000   0.00000   0.00000
           A3           0.00000   0.00000   0.00000   0.00000   0.00000
           A4           0.00000   0.00000   0.00000   0.00000   0.00000
           A5           0.00000   0.00000   0.00000   0.00000   0.00000
           A6           0.00000   0.00000   0.00000   0.00000   0.00000
           D1           0.00000   0.00000   0.00000   0.00000   0.00000
           D2           0.00000   0.00000   0.00000   0.00000   0.00000
           D3           0.00000   0.00000   0.00000   0.00000   0.00000
           D4           0.00000   0.00000   0.00000   0.00000   0.00000
                          A1        A2        A3        A4        A5
           A1           0.25000
           A2           0.00000   0.16000
           A3           0.00000   0.00000   0.16000
           A4           0.00000   0.00000   0.00000   0.16000
           A5           0.00000   0.00000   0.00000   0.00000   0.16000
           A6           0.00000   0.00000   0.00000   0.00000   0.00000
           D1           0.00000   0.00000   0.00000   0.00000   0.00000
           D2           0.00000   0.00000   0.00000   0.00000   0.00000
           D3           0.00000   0.00000   0.00000   0.00000   0.00000
           D4           0.00000   0.00000   0.00000   0.00000   0.00000
                          A6        D1        D2        D3        D4
           A6           0.16000
           D1           0.00000   0.02455
           D2           0.00000   0.00000   0.02455
           D3           0.00000   0.00000   0.00000   0.02455
           D4           0.00000   0.00000   0.00000   0.00000   0.02455
     Eigenvalues ---    0.02455   0.02455   0.02455   0.16000   0.16000
     Eigenvalues ---    0.16000   0.22000   0.33098   0.45754   0.46145
     Eigenvalues ---    0.56693   0.923611000.000001000.000001000.00000
 RFO step:  Lambda=-7.63440007D-03 EMin= 2.45504600D-02
 Linear search not attempted -- first point.
 Iteration  1 RMS(Cart)=  0.03965472 RMS(Int)=  0.00150443
 Iteration  2 RMS(Cart)=  0.00153226 RMS(Int)=  0.00000202
 Iteration  3 RMS(Cart)=  0.00000236 RMS(Int)=  0.00000000
 Iteration  4 RMS(Cart)=  0.00000000 RMS(Int)=  0.00000000
 Variable       Old X    -DE/DX   Delta X   Delta X   Delta X     New X
                                 (Linear)    (Quad)   (Total)
    R1        2.53658  -0.03964   0.00000  -0.06899  -0.06899   2.46759
    R2        2.31863   0.00584   0.00000   0.00627   0.00627   2.32490
    R3        2.08880   0.02834   0.00000   0.08370   0.08370   2.17250
    R4        1.91109   0.01236   0.00000   0.02657   0.02657   1.93767
    R5        1.90668   0.00291   0.00000   0.00621   0.00621   1.91289
    A1        2.17634  -0.00330   0.00000  -0.01448  -0.01448   2.16186
    A2        1.97993   0.01418   0.00000   0.08201   0.08201   2.06194
    A3        2.12692  -0.01089   0.00000  -0.06753  -0.06753   2.05939
    A4        2.09837  -0.00024   0.00000  -0.00142  -0.00142   2.09695
    A5        2.10930  -0.00396   0.00000  -0.02362  -0.02362   2.08568
    A6        2.07552   0.00420   0.00000   0.02504   0.02504   2.10056
    D1       -0.00004   0.00000   0.00000   0.00001   0.00001  -0.00003
    D2       -3.14155   0.00000   0.00000   0.00002   0.00002  -3.14152
    D3        3.14156   0.00000   0.00000  -0.00002  -0.00002   3.14154
    D4        0.00005   0.00000   0.00000   0.00000   0.00000   0.00005
         Item               Value     Threshold  Converged?
 Maximum Force            0.039638     0.000450     NO 
 RMS     Force            0.013985     0.000300     NO 
 Maximum Displacement     0.073878     0.001800     NO 
 RMS     Displacement     0.039697     0.001200     NO 
 Predicted change in Energy=-3.913508D-03
 GradGradGradGradGradGradGradGradGradGradGradGradGradGradGradGradGradGrad

                          Input orientation:                          
 ---------------------------------------------------------------------
 Center     Atomic      Atomic             Coordinates (Angstroms)
 Number     Number       Type             X           Y           Z
 ---------------------------------------------------------------------
      1          6           0       -0.111403    0.385155   -0.000014
      2          7           0        1.071280   -0.168340    0.000054
      3          8           0       -1.165353   -0.249505   -0.000068
      4          1           0        1.161834   -1.189703    0.000092
      5          1           0        1.896199    0.418328    0.000158
      6          1           0       -0.172787    1.533151   -0.000005
 ---------------------------------------------------------------------
                    Distance matrix (angstroms):
                    1          2          3          4          5
     1  C    0.000000
     2  N    1.305793   0.000000
     3  O    1.230286   2.238105   0.000000
     4  H    2.025168   1.025369   2.509934   0.000000
     5  H    2.007876   1.012260   3.133544   1.767782   0.000000
     6  H    1.149637   2.107789   2.040356   3.032350   2.350220
                    6
     6  H    0.000000
 Symmetry turned off by external request.
 Stoichiometry    CH3NO
 Framework group  C1[X(CH3NO)]
 Deg. of freedom    12
 Full point group                 C1      NOp   1
 Rotational constants (GHZ):     71.0788285     11.7874095     10.1106950
 Standard basis: Aug-CC-pVDZ (5D, 7F)
 Integral buffers will be    131072 words long.
 Raffenetti 2 integral format.
 Two-electron integral symmetry is turned off.
    96 basis functions,   162 primitive gaussians,   102 cartesian basis functions
    12 alpha electrons       12 beta electrons
       nuclear repulsion energy        71.6591032452 Hartrees.
 NAtoms=    6 NActive=    6 NUniq=    6 SFac= 7.50D-01 NAtFMM=   80 NAOKFM=F Big=F
 Standard density basis: Auto (5D, 7F)
   327 Density fitting functions
 ------------------------------------------------------------------------------
 Polarizable Continuum Model (PCM)
 =================================
 Model                : PCM.
 Atomic radii         : UFF (Universal Force Field).
 Polarization charges : Total charges.
 Charge compensation  : None.
 Solution method      : Matrix inversion.
 Cavity type          : Scaled VdW (van der Waals Surface) (Alpha=1.100).
 Cavity algorithm     : GePol (No added spheres)
                        Default sphere list used, NSphG=    6.
                        Lebedev-Laikov grids with approx.  5.0 points / Ang**2.
                        Smoothing algorithm: Karplus/York (Gamma=1.0000).
                        Polarization charges: spherical gaussians, with
                                              point-specific exponents (IZeta= 3).
                        Self-potential: point-specific (ISelfS= 7).
                        Self-field    : sphere-specific E.n sum rule (ISelfD= 2).
 1st derivatives      : Analytical E(r).r(x)/FMM algorithm (CHGder, D1EAlg=3).
                        Cavity 1st derivative terms included.
 Solvent              : Water, Eps=  78.355300 Eps(inf)=   1.777849
 ------------------------------------------------------------------------------
 Spheres list:
 ISph  on   Nord    Re0     Alpha      Xe            Ye            Ze
    1   C      1    1.926   1.100     -0.111403      0.385155     -0.000014
    2   N      2    1.830   1.100      1.071280     -0.168340      0.000054
    3   O      3    1.750   1.100     -1.165353     -0.249505     -0.000068
    4   H      4    1.443   1.100      1.161834     -1.189703      0.000092
    5   H      5    1.443   1.100      1.896199      0.418328      0.000158
    6   H      6    1.443   1.100     -0.172787      1.533151     -0.000005
 ------------------------------------------------------------------------------
 One-electron integrals computed using PRISM.
 NBasis=    96 RedAO= T  NBF=    96
 NBsUse=    96 1.00D-06 NBFU=    96
 Initial guess read from the read-write file.
 B after Tr=     0.000000    0.000000    0.000000
         Rot=    1.000000    0.000000    0.000000    0.000000 Ang=   0.00 deg.
 Harris functional with IExCor=20419 diagonalized for initial guess.
 ExpMin= 2.97D-02 ExpMax= 1.17D+04 ExpMxC= 4.01D+02 IAcc=3 IRadAn=         5 AccDes= 0.00D+00
 HarFok:  IExCor=20419 AccDes= 0.00D+00 IRadAn=         5 IDoV= 1
 ScaDFX=  1.000000  1.000000  1.000000  1.000000
 FoFCou: FMM=F IPFlag=           0 FMFlag=      100000 FMFlg1=           0
         NFxFlg=           0 DoJE=T BraDBF=F KetDBF=T FulRan=T
         Omega=  0.000000  0.000000  1.000000  0.000000  0.000000 ICntrl=     500 IOpCl=  0
         NMat0=    1 NMatS0=    1 NMatT0=    0 NMatD0=    1 NMtDS0=    0 NMtDT0=    0
         I1Cent=           4 NGrid=           0.
 Symmetry not used in FoFCou.
 Requested convergence on RMS density matrix=1.00D-08 within 128 cycles.
 Requested convergence on MAX density matrix=1.00D-06.
 Requested convergence on             energy=1.00D-06.
 No special actions if energy rises.
 FoFJK:  IHMeth= 1 ICntrl=     0 DoSepK=T KAlg= 1 I1Cent= 0 FoldK=F
 FoFJK:  IHMeth= 1 ICntrl=     0 DoSepK=T KAlg= 1 I1Cent= 0 FoldK=F
 FoFJK:  IHMeth= 1 ICntrl=     0 DoSepK=T KAlg= 1 I1Cent= 0 FoldK=F
 FoFJK:  IHMeth= 1 ICntrl=     0 DoSepK=T KAlg= 1 I1Cent= 0 FoldK=F
 FoFJK:  IHMeth= 1 ICntrl=     0 DoSepK=T KAlg= 1 I1Cent= 0 FoldK=F
 FoFJK:  IHMeth= 1 ICntrl=     0 DoSepK=T KAlg= 1 I1Cent= 0 FoldK=F
 FoFJK:  IHMeth= 1 ICntrl=     0 DoSepK=T KAlg= 1 I1Cent= 0 FoldK=F
 FoFJK:  IHMeth= 1 ICntrl=     0 DoSepK=T KAlg= 1 I1Cent= 0 FoldK=F
 FoFJK:  IHMeth= 1 ICntrl=     0 DoSepK=T KAlg= 1 I1Cent= 0 FoldK=F
 FoFJK:  IHMeth= 1 ICntrl=     0 DoSepK=T KAlg= 1 I1Cent= 0 FoldK=F
 FoFJK:  IHMeth= 1 ICntrl=     0 DoSepK=T KAlg= 1 I1Cent= 0 FoldK=F
 Error on total polarization charges =  0.01067
 SCF Done:  E(RCAM-B3LYP) =  -169.860864507     A.U. after   11 cycles
             Convg  =    0.2303D-08             -V/T =  2.0063
 ExpMin= 2.97D-02 ExpMax= 1.17D+04 ExpMxC= 4.01D+02 IAcc=3 IRadAn=         5 AccDes= 0.00D+00
 HarFok:  IExCor=  205 AccDes= 0.00D+00 IRadAn=         5 IDoV=-2
 ScaDFX=  1.000000  1.000000  1.000000  1.000000
 Range of M.O.s used for correlation:     4    96
 NBasis=    96 NAE=    12 NBE=    12 NFC=     3 NFV=     0
 NROrb=     93 NOA=     9 NOB=     9 NVA=    84 NVB=    84

 **** Warning!!: The largest alpha MO coefficient is  0.20177074D+02

 NEqPCM:  Using equilibrium solvation (IEInf=0, Eps=  78.3553, EpsInf=   1.7778)
 Generating guess from densities on rwf.
 Convergence on wavefunction:    0.000001000000000
 Iteration     1 Dimension    40 NMult    40
 CISAX will form    40 AO SS matrices at one time.
 FoFJK:  IHMeth= 1 ICntrl=     0 DoSepK=T KAlg= 1 I1Cent= 0 FoldK=F
 FoFJK:  IHMeth= 1 ICntrl=     0 DoSepK=T KAlg= 1 I1Cent= 0 FoldK=F
 New state     18 was old state     19
 New state     19 was old state     20
 New state     20 was old state     18
 Iteration     2 Dimension    80 NMult    80
 FoFJK:  IHMeth= 1 ICntrl=     0 DoSepK=T KAlg= 1 I1Cent= 0 FoldK=F
 FoFJK:  IHMeth= 1 ICntrl=     0 DoSepK=T KAlg= 1 I1Cent= 0 FoldK=F
 Iteration     3 Dimension   120 NMult   120
 FoFJK:  IHMeth= 1 ICntrl=     0 DoSepK=T KAlg= 1 I1Cent= 0 FoldK=F
 FoFJK:  IHMeth= 1 ICntrl=     0 DoSepK=T KAlg= 1 I1Cent= 0 FoldK=F
 Iteration     4 Dimension   160 NMult   160
 FoFJK:  IHMeth= 1 ICntrl=     0 DoSepK=T KAlg= 1 I1Cent= 0 FoldK=F
 FoFJK:  IHMeth= 1 ICntrl=     0 DoSepK=T KAlg= 1 I1Cent= 0 FoldK=F
 Iteration     5 Dimension   200 NMult   200
 FoFJK:  IHMeth= 1 ICntrl=     0 DoSepK=T KAlg= 1 I1Cent= 0 FoldK=F
 FoFJK:  IHMeth= 1 ICntrl=     0 DoSepK=T KAlg= 1 I1Cent= 0 FoldK=F
 Iteration     6 Dimension   240 NMult   240
 FoFJK:  IHMeth= 1 ICntrl=     0 DoSepK=T KAlg= 1 I1Cent= 0 FoldK=F
 FoFJK:  IHMeth= 1 ICntrl=     0 DoSepK=T KAlg= 1 I1Cent= 0 FoldK=F
 Iteration     7 Dimension   270 NMult   270
 FoFJK:  IHMeth= 1 ICntrl=     0 DoSepK=T KAlg= 1 I1Cent= 0 FoldK=F
 FoFJK:  IHMeth= 1 ICntrl=     0 DoSepK=T KAlg= 1 I1Cent= 0 FoldK=F
 Iteration     8 Dimension   282 NMult   282
 FoFJK:  IHMeth= 1 ICntrl=     0 DoSepK=T KAlg= 1 I1Cent= 0 FoldK=F
 FoFJK:  IHMeth= 1 ICntrl=     0 DoSepK=T KAlg= 1 I1Cent= 0 FoldK=F
 Iteration     9 Dimension   290 NMult   290
 FoFJK:  IHMeth= 1 ICntrl=     0 DoSepK=T KAlg= 1 I1Cent= 0 FoldK=F
 FoFJK:  IHMeth= 1 ICntrl=     0 DoSepK=T KAlg= 1 I1Cent= 0 FoldK=F
 Iteration    10 Dimension   292 NMult   292
 FoFJK:  IHMeth= 1 ICntrl=     0 DoSepK=T KAlg= 1 I1Cent= 0 FoldK=F
 FoFJK:  IHMeth= 1 ICntrl=     0 DoSepK=T KAlg= 1 I1Cent= 0 FoldK=F
 Iteration    11 Dimension   294 NMult   294
 FoFJK:  IHMeth= 1 ICntrl=     0 DoSepK=T KAlg= 1 I1Cent= 0 FoldK=F
 FoFJK:  IHMeth= 1 ICntrl=     0 DoSepK=T KAlg= 1 I1Cent= 0 FoldK=F
 ***********************************************************************
 Excited states from <AA,BB:AA,BB> singles matrix:
 ***********************************************************************
 
 Ground to excited state transition electric dipole moments (Au):
       state          X           Y           Z        Dip. S.      Osc.
         1         0.0000      0.0000      0.0902      0.0081      0.0012
         2        -0.1519      0.0996      0.0000      0.0330      0.0055
         3         0.0000      0.0000      0.2311      0.0534      0.0093
         4         0.9427      0.5044      0.0000      1.1432      0.2037
         5        -0.8692      0.7642      0.0000      1.3395      0.2455
         6         0.0000     -0.0001      0.0862      0.0074      0.0014
         7         0.8921      0.2630      0.0000      0.8651      0.1666
         8        -0.0001      0.0000     -0.4668      0.2179      0.0428
         9         0.0000      0.0000      0.2170      0.0471      0.0095
        10        -0.1540     -0.0407      0.0000      0.0254      0.0054
        11         0.0891     -0.1434      0.0000      0.0285      0.0062
        12         0.0000      0.0000      0.1542      0.0238      0.0053
        13        -0.0255     -0.0181      0.0000      0.0010      0.0002
        14         0.0000      0.0000     -0.1845      0.0341      0.0078
        15         0.1422      0.0944      0.0000      0.0291      0.0070
        16         0.0000      0.0000     -0.0196      0.0004      0.0001
        17         0.0000     -0.0001     -0.1472      0.0217      0.0054
        18        -0.1214     -0.4387      0.0000      0.2072      0.0521
        19         0.0000      0.0001     -0.1168      0.0136      0.0035
        20         0.0000      0.0000      0.1726      0.0298      0.0076
 Ground to excited state transition velocity dipole moments (Au):
       state          X           Y           Z        Dip. S.      Osc.
         1         0.0000      0.0000     -0.0231      0.0005      0.0017
         2         0.0392     -0.0263      0.0000      0.0022      0.0059
         3         0.0000      0.0000     -0.0578      0.0033      0.0086
         4        -0.2468     -0.1324      0.0000      0.0784      0.1957
         5         0.2360     -0.2077      0.0000      0.0989      0.2397
         6         0.0000      0.0000     -0.0252      0.0006      0.0015
         7        -0.2551     -0.0747      0.0000      0.0706      0.1630
         8         0.0000      0.0000      0.1337      0.0179      0.0404
         9         0.0000      0.0000     -0.0667      0.0045      0.0098
        10         0.0400      0.0103      0.0000      0.0017      0.0036
        11        -0.0274      0.0455      0.0000      0.0028      0.0058
        12         0.0000      0.0000     -0.0493      0.0024      0.0048
        13        -0.0021      0.0056      0.0000      0.0000      0.0001
        14         0.0000      0.0000      0.0636      0.0040      0.0078
        15        -0.0506     -0.0276      0.0000      0.0033      0.0061
        16         0.0000      0.0000      0.0079      0.0001      0.0001
        17         0.0000      0.0000      0.0590      0.0035      0.0062
        18         0.0429      0.1667      0.0000      0.0296      0.0524
        19         0.0000      0.0000      0.0382      0.0015      0.0025
        20         0.0000      0.0000     -0.0657      0.0043      0.0075
 Ground to excited state transition magnetic dipole moments (Au):
       state          X           Y           Z
         1        -0.9730     -0.3493      0.0000
         2         0.0000      0.0001      0.5002
         3         0.0108      0.5633      0.0000
         4         0.0000      0.0000      0.1871
         5         0.0000      0.0000     -0.2352
         6         0.0599     -0.0015      0.0000
         7         0.0000      0.0000      0.5510
         8        -0.0415      0.3052     -0.0001
         9        -0.0771      0.1193      0.0000
        10         0.0000      0.0000      0.0920
        11         0.0000      0.0000      0.0055
        12         0.0934     -0.3159      0.0000
        13         0.0000     -0.0001      0.2483
        14        -0.0911     -0.5205      0.0000
        15         0.0000      0.0000     -0.3949
        16        -1.0051      0.8386      0.0000
        17         0.1549     -0.5838      0.0000
        18         0.0000      0.0000     -0.0427
        19         0.1270     -0.3782      0.0000
        20         0.0392     -0.2125      0.0000
 <0|del|b> * <b|rxdel|0> + <0|del|b> * <b|delr+rdel|0>
 Rotatory Strengths (R) in cgs (10**-40 erg-esu-cm/Gauss)
       state          XX          YY          ZZ    R(velocity)
         1         0.0021      0.0047      0.0030      0.0033
 Total R(velocity) tensor for State=          1
                 1             2             3 
      1   0.213125D-02 -0.968234D-03  0.000000D+00
      2  -0.376285D-02  0.472802D-02  0.000000D+00
      3  -0.311424D+02 -0.129635D+02  0.296503D-02
         2        -0.0052      0.0005     -0.0014     -0.0020
 Total R(velocity) tensor for State=          2
                 1             2             3 
      1  -0.517618D-02 -0.675397D-02 -0.305161D+02
      2   0.482450D-04  0.542452D-03 -0.152849D+02
      3   0.347468D+01  0.516471D+01 -0.135740D-02
         3         0.0020      0.0008      0.0000      0.0009
 Total R(velocity) tensor for State=          3
                 1             2             3 
      1   0.203394D-02  0.261225D-01 -0.115633D-05
      2   0.445687D-02  0.793149D-03 -0.100201D-05
      3  -0.893697D+00  0.832631D+01 -0.293376D-04
         4         0.0122     -0.0098     -0.0051     -0.0009
 Total R(velocity) tensor for State=          4
                 1             2             3 
      1   0.121556D-01 -0.264060D-01  0.583215D+02
      2   0.686735D-02 -0.980258D-02 -0.465823D+02
      3   0.251437D-01 -0.468606D-01 -0.506508D-02
         5        -0.0158     -0.0038      0.0036     -0.0054
 Total R(velocity) tensor for State=          5
                 1             2             3 
      1  -0.158340D-01 -0.119074D-01  0.122179D+03
      2  -0.534052D-02 -0.382647D-02  0.450186D+02
      3   0.192906D+02  0.219167D+02  0.355878D-02
         6        -0.0012     -0.0001      0.0006     -0.0002
 Total R(velocity) tensor for State=          6
                 1             2             3 
      1  -0.124296D-02 -0.572715D-03  0.000000D+00
      2  -0.278629D-02 -0.116203D-03  0.000000D+00
      3  -0.435933D+00  0.124427D+01  0.633209D-03
         7        -0.0094      0.0076      0.0130      0.0037
 Total R(velocity) tensor for State=          7
                 1             2             3 
      1  -0.941242D-02  0.225965D-01  0.263655D+03
      2  -0.213158D-02  0.761242D-02 -0.917891D+01
      3  -0.687673D+01  0.234861D+02  0.129628D-01
         8        -0.0067     -0.0074      0.0017     -0.0041
 Total R(velocity) tensor for State=          8
                 1             2             3 
      1  -0.670899D-02 -0.144548D-01  0.215649D-05
      2   0.295444D-02 -0.736062D-02  0.000000D+00
      3   0.654876D+01 -0.293609D+02  0.174964D-02
         9         0.0022      0.0001     -0.0007      0.0005
 Total R(velocity) tensor for State=          9
                 1             2             3 
      1   0.220856D-02 -0.154198D-02  0.000000D+00
      2  -0.701748D-03  0.878836D-04  0.000000D+00
      3  -0.399713D+01  0.558259D+00 -0.715024D-03
        10        -0.0005      0.0009     -0.0001      0.0001
 Total R(velocity) tensor for State=         10
                 1             2             3 
      1  -0.514656D-03 -0.805314D-03 -0.952633D+01
      2  -0.379055D-03  0.875387D-03 -0.200854D+01
      3  -0.110900D+01  0.428435D+01 -0.575505D-04
        11        -0.0006     -0.0014     -0.0009     -0.0010
 Total R(velocity) tensor for State=         11
                 1             2             3 
      1  -0.623000D-03 -0.228017D-02 -0.146559D+02
      2  -0.246947D-02 -0.140066D-02  0.654048D+00
      3   0.165862D+01  0.997864D+00 -0.901796D-03
        12         0.0003      0.0010     -0.0001      0.0004
 Total R(velocity) tensor for State=         12
                 1             2             3 
      1   0.303517D-03  0.402830D-03  0.000000D+00
      2   0.346198D-02  0.973107D-03  0.000000D+00
      3  -0.142874D+01  0.117849D+00 -0.643134D-04
        13         0.0017      0.0026     -0.0002      0.0014
 Total R(velocity) tensor for State=         13
                 1             2             3 
      1   0.167371D-02 -0.381709D-05  0.377829D+00
      2  -0.132314D-02  0.260757D-02 -0.189032D+01
      3   0.935810D+00  0.343562D+00 -0.184421D-03
        14        -0.0003     -0.0022      0.0014     -0.0004
 Total R(velocity) tensor for State=         14
                 1             2             3 
      1  -0.259437D-03  0.649854D-03  0.000000D+00
      2   0.915092D-03 -0.223100D-02  0.000000D+00
      3   0.142017D+02  0.297996D+02  0.138573D-02
        15         0.0010     -0.0003     -0.0011     -0.0001
 Total R(velocity) tensor for State=         15
                 1             2             3 
      1   0.962325D-03 -0.214711D-02 -0.177870D+02
      2   0.950643D-04 -0.284830D-03 -0.516827D+01
      3  -0.201998D+01  0.371091D+01 -0.110835D-02
        16        -0.0011      0.0103      0.0044      0.0045
 Total R(velocity) tensor for State=         16
                 1             2             3 
      1  -0.108933D-02  0.763598D-02  0.000000D+00
      2  -0.118554D-02  0.103249D-01  0.000000D+00
      3   0.484548D+01 -0.536252D+01  0.441340D-02
        17        -0.0240      0.0002     -0.0080     -0.0106
 Total R(velocity) tensor for State=         17
                 1             2             3 
      1  -0.240455D-01 -0.476453D-03 -0.255861D-05
      2   0.512964D-02  0.205598D-03  0.000000D+00
      3  -0.177310D+02  0.114133D+02 -0.799444D-02
        18        -0.0012      0.0021     -0.0042     -0.0011
 Total R(velocity) tensor for State=         18
                 1             2             3 
      1  -0.119551D-02  0.136359D-02 -0.449602D+02
      2  -0.822608D-02  0.210161D-02  0.553853D+00
      3   0.345251D+02 -0.887515D+01 -0.423292D-02
        19         0.0178      0.0013      0.0068      0.0087
 Total R(velocity) tensor for State=         19
                 1             2             3 
      1   0.178142D-01  0.748271D-03  0.000000D+00
      2  -0.428203D-02  0.132121D-02  0.141844D-05
      3  -0.845039D+01  0.696940D+01  0.681480D-02
        20        -0.0027      0.0004     -0.0035     -0.0020
 Total R(velocity) tensor for State=         20
                 1             2             3 
      1  -0.273347D-02  0.119048D-02  0.000000D+00
      2   0.118224D-02  0.415620D-03  0.000000D+00
      3   0.630034D+01 -0.147998D+02 -0.354813D-02
 1/2[<0|r|b>*<b|rxdel|0> + (<0|rxdel|b>*<b|r|0>)*]
 Rotatory Strengths (R) in cgs (10**-40 erg-esu-cm/Gauss)
       state          XX          YY          ZZ     R(length)     R(au)
         1         0.0058      0.0022      0.0026      0.0035      0.0000
         2        -0.0006     -0.0040     -0.0016     -0.0021      0.0000
         3        -0.0004     -0.0029      0.0058      0.0009      0.0000
         4        -0.0108      0.0123     -0.0042     -0.0009      0.0000
         5         0.0003     -0.0102     -0.0063     -0.0054      0.0000
         6         0.0006     -0.0001     -0.0012     -0.0002      0.0000
         7         0.0223     -0.0073     -0.0031      0.0039      0.0000
         8        -0.0017      0.0088     -0.0198     -0.0042      0.0000
         9        -0.0023      0.0009      0.0029      0.0005      0.0000
        10         0.0011      0.0000     -0.0006      0.0002      0.0000
        11         0.0000     -0.0029     -0.0001     -0.0010      0.0000
        12         0.0003      0.0027     -0.0017      0.0004      0.0000
        13        -0.0003     -0.0008      0.0050      0.0013      0.0000
        14         0.0001      0.0034     -0.0045     -0.0004      0.0000
        15        -0.0006      0.0008     -0.0004     -0.0001      0.0000
        16         0.0153     -0.0015     -0.0006      0.0044      0.0000
        17        -0.0017     -0.0338      0.0035     -0.0107      0.0000
        18         0.0037     -0.0064     -0.0005     -0.0011      0.0000
        19         0.0003      0.0246      0.0010      0.0086      0.0000
        20        -0.0009     -0.0042     -0.0008     -0.0020      0.0000
  1/2[<0|del|b>*<b|r|0> + (<0|r|b>*<b|del|0>)*] (Au)
       state          X           Y           Z        Dip. S.   Osc.(frdel)
         1         0.0000      0.0000     -0.0021      0.0021      0.0014
         2        -0.0059     -0.0026      0.0000      0.0086      0.0057
         3         0.0000      0.0000     -0.0134      0.0134      0.0089
         4        -0.2326     -0.0668      0.0000      0.2994      0.1996
         5        -0.2052     -0.1588      0.0000      0.3639      0.2426
         6         0.0000      0.0000     -0.0022      0.0022      0.0014
         7        -0.2276     -0.0196      0.0000      0.2472      0.1648
         8         0.0000      0.0000     -0.0624      0.0624      0.0416
         9         0.0000      0.0000     -0.0145      0.0145      0.0096
        10        -0.0062     -0.0004      0.0000      0.0066      0.0044
        11        -0.0024     -0.0065      0.0000      0.0090      0.0060
        12         0.0000      0.0000     -0.0076      0.0076      0.0051
        13         0.0001     -0.0001      0.0000      0.0000      0.0000
        14         0.0000      0.0000     -0.0117      0.0117      0.0078
        15        -0.0072     -0.0026      0.0000      0.0098      0.0065
        16         0.0000      0.0000     -0.0002      0.0002      0.0001
        17         0.0000      0.0000     -0.0087      0.0087      0.0058
        18        -0.0052     -0.0731      0.0000      0.0783      0.0522
        19         0.0000      0.0000     -0.0045      0.0045      0.0030
        20         0.0000      0.0000     -0.0113      0.0113      0.0076
 Ground to excited state transition densities written to RWF  633

 Excitation energies and oscillator strengths:
 
 Excited state symmetry could not be determined.
 Excited State   1:      Singlet-?Sym    5.7922 eV  214.05 nm  f=0.0012  <S**2>=0.000
      12 -> 16         0.65559
      12 -> 17        -0.24403
 
 Excited state symmetry could not be determined.
 Excited State   2:      Singlet-?Sym    6.8593 eV  180.75 nm  f=0.0055  <S**2>=0.000
      11 -> 16         0.12583
      12 -> 13         0.59542
      12 -> 14        -0.13103
      12 -> 15         0.25823
      12 -> 18         0.12745
      12 -> 20        -0.12424
 
 Excited state symmetry could not be determined.
 Excited State   3:      Singlet-?Sym    7.0727 eV  175.30 nm  f=0.0093  <S**2>=0.000
      11 -> 13         0.66298
      11 -> 14         0.10949
      11 -> 19        -0.13541
      11 -> 20        -0.12830
 
 Excited state symmetry could not be determined.
 Excited State   4:      Singlet-?Sym    7.2717 eV  170.50 nm  f=0.2037  <S**2>=0.000
      11 -> 16         0.39132
      11 -> 17        -0.20681
      12 -> 14         0.49866
      12 -> 19        -0.17636
 
 Excited state symmetry could not be determined.
 Excited State   5:      Singlet-?Sym    7.4812 eV  165.73 nm  f=0.2455  <S**2>=0.000
      11 -> 16        -0.38743
      11 -> 17         0.22860
      12 -> 14         0.38900
      12 -> 15         0.30390
      12 -> 18         0.17299
 This state for optimization and/or second-order correction.
 Copying the excited state density for this state as the 1-particle RhoCI density.
 
 Excited state symmetry could not be determined.
 Excited State   6:      Singlet-?Sym    7.6902 eV  161.22 nm  f=0.0014  <S**2>=0.000
      11 -> 13        -0.11872
      11 -> 14         0.64447
      11 -> 15         0.13447
      11 -> 20         0.11178
      11 -> 21        -0.15161
 
 Excited state symmetry could not be determined.
 Excited State   7:      Singlet-?Sym    7.8598 eV  157.74 nm  f=0.1666  <S**2>=0.000
      11 -> 16         0.19656
      11 -> 17        -0.15426
      12 -> 13        -0.34092
      12 -> 14        -0.15377
      12 -> 15         0.48502
      12 -> 18         0.21355
 
 Excited state symmetry could not be determined.
 Excited State   8:      Singlet-?Sym    8.0240 eV  154.52 nm  f=0.0428  <S**2>=0.000
      11 -> 14        -0.12905
      11 -> 15         0.64829
      11 -> 18         0.18210
      11 -> 23        -0.10704
 
 Excited state symmetry could not be determined.
 Excited State   9:      Singlet-?Sym    8.2154 eV  150.92 nm  f=0.0095  <S**2>=0.000
      12 -> 16         0.23985
      12 -> 17         0.65446
 
 Excited state symmetry could not be determined.
 Excited State  10:      Singlet-?Sym    8.6386 eV  143.52 nm  f=0.0054  <S**2>=0.000
      11 -> 16         0.34003
      11 -> 17         0.60704
 
 Excited state symmetry could not be determined.
 Excited State  11:      Singlet-?Sym    8.8667 eV  139.83 nm  f=0.0062  <S**2>=0.000
      12 -> 15         0.28996
      12 -> 18        -0.60444
      12 -> 19         0.16253
 
 Excited state symmetry could not be determined.
 Excited State  12:      Singlet-?Sym    9.0954 eV  136.32 nm  f=0.0053  <S**2>=0.000
      11 -> 15         0.15942
      11 -> 18        -0.64698
      11 -> 24         0.14761
 
 Excited state symmetry could not be determined.
 Excited State  13:      Singlet-?Sym    9.1855 eV  134.98 nm  f=0.0002  <S**2>=0.000
      12 -> 14         0.15703
      12 -> 18         0.14279
      12 -> 19         0.63509
      12 -> 23         0.10896
 
 Excited state symmetry could not be determined.
 Excited State  14:      Singlet-?Sym    9.3555 eV  132.53 nm  f=0.0078  <S**2>=0.000
      11 -> 13         0.10953
      11 -> 19         0.66377
 
 Excited state symmetry could not be determined.
 Excited State  15:      Singlet-?Sym    9.8359 eV  126.05 nm  f=0.0070  <S**2>=0.000
      12 -> 13         0.10554
      12 -> 14        -0.12112
      12 -> 20         0.58260
      12 -> 23         0.32199
 
 Excited state symmetry could not be determined.
 Excited State  16:      Singlet-?Sym   10.0603 eV  123.24 nm  f=0.0001  <S**2>=0.000
      10 -> 16         0.64079
      10 -> 17        -0.23627
      11 -> 23         0.10788
 
 Excited state symmetry could not be determined.
 Excited State  17:      Singlet-?Sym   10.2441 eV  121.03 nm  f=0.0054  <S**2>=0.000
      11 -> 13         0.14502
      11 -> 20         0.61839
      11 -> 21         0.18024
      11 -> 23         0.17336
 
 Excited state symmetry could not be determined.
 Excited State  18:      Singlet-?Sym   10.2638 eV  120.80 nm  f=0.0521  <S**2>=0.000
      11 -> 22        -0.11367
      12 -> 14         0.11254
      12 -> 20        -0.16854
      12 -> 21         0.49186
      12 -> 23         0.37043
      12 -> 24         0.16186
      12 -> 27        -0.12920
 
 Excited state symmetry could not be determined.
 Excited State  19:      Singlet-?Sym   10.3896 eV  119.33 nm  f=0.0035  <S**2>=0.000
      11 -> 14         0.13415
      11 -> 20        -0.23962
      11 -> 21         0.34234
      11 -> 23         0.47617
      11 -> 24         0.13565
      11 -> 26        -0.13273
 
 Excited state symmetry could not be determined.
 Excited State  20:      Singlet-?Sym   10.4001 eV  119.21 nm  f=0.0076  <S**2>=0.000
      11 -> 21        -0.15734
      12 -> 22         0.64972
      12 -> 25        -0.14553
 SavETr:  write IOETrn=   770 NScale= 10 NData=  16 NLR=1 LETran=     370.
 FoFJK:  IHMeth= 1 ICntrl=     0 DoSepK=T KAlg= 1 I1Cent= 0 FoldK=F
 FoFJK:  IHMeth= 1 ICntrl=     0 DoSepK=T KAlg= 1 I1Cent= 0 FoldK=F
          IDoAtm=111111
 NEqPCM:  Using equilibrium solvation (IEInf=0, Eps=  78.3553, EpsInf=   1.7778)
          Differentiating once with respect to electric field.
                with respect to dipole field.
          Differentiating once with respect to nuclear coordinates.
          There are     1 degrees of freedom in the 1st order CPHF.  IDoFFX=0.
 FoFJK:  IHMeth= 1 ICntrl=     0 DoSepK=T KAlg= 1 I1Cent= 0 FoldK=F
 LinEq1:  Iter=  0 NonCon=     1 RMS=3.08D-02 Max=4.05D-01
 AX will form     1 AO Fock derivatives at one time.
 FoFJK:  IHMeth= 1 ICntrl=     0 DoSepK=T KAlg= 1 I1Cent= 0 FoldK=F
 LinEq1:  Iter=  1 NonCon=     1 RMS=1.30D-02 Max=2.01D-01
 FoFJK:  IHMeth= 1 ICntrl=     0 DoSepK=T KAlg= 1 I1Cent= 0 FoldK=F
 LinEq1:  Iter=  2 NonCon=     1 RMS=8.51D-03 Max=1.06D-01
 FoFJK:  IHMeth= 1 ICntrl=     0 DoSepK=T KAlg= 1 I1Cent= 0 FoldK=F
 LinEq1:  Iter=  3 NonCon=     1 RMS=2.27D-03 Max=2.35D-02
 FoFJK:  IHMeth= 1 ICntrl=     0 DoSepK=T KAlg= 1 I1Cent= 0 FoldK=F
 LinEq1:  Iter=  4 NonCon=     1 RMS=1.04D-03 Max=9.97D-03
 FoFJK:  IHMeth= 1 ICntrl=     0 DoSepK=T KAlg= 1 I1Cent= 0 FoldK=F
 LinEq1:  Iter=  5 NonCon=     1 RMS=1.92D-04 Max=1.73D-03
 FoFJK:  IHMeth= 1 ICntrl=     0 DoSepK=T KAlg= 1 I1Cent= 0 FoldK=F
 LinEq1:  Iter=  6 NonCon=     1 RMS=4.37D-05 Max=4.85D-04
 FoFJK:  IHMeth= 1 ICntrl=     0 DoSepK=T KAlg= 1 I1Cent= 0 FoldK=F
 LinEq1:  Iter=  7 NonCon=     1 RMS=8.55D-06 Max=6.54D-05
 FoFJK:  IHMeth= 1 ICntrl=     0 DoSepK=T KAlg= 1 I1Cent= 0 FoldK=F
 LinEq1:  Iter=  8 NonCon=     1 RMS=1.58D-06 Max=1.42D-05
 FoFJK:  IHMeth= 1 ICntrl=     0 DoSepK=T KAlg= 1 I1Cent= 0 FoldK=F
 LinEq1:  Iter=  9 NonCon=     1 RMS=2.39D-07 Max=1.87D-06
 FoFJK:  IHMeth= 1 ICntrl=     0 DoSepK=T KAlg= 1 I1Cent= 0 FoldK=F
 LinEq1:  Iter= 10 NonCon=     1 RMS=4.44D-08 Max=4.06D-07
 FoFJK:  IHMeth= 1 ICntrl=     0 DoSepK=T KAlg= 1 I1Cent= 0 FoldK=F
 LinEq1:  Iter= 11 NonCon=     1 RMS=7.92D-09 Max=6.81D-08
 FoFJK:  IHMeth= 1 ICntrl=     0 DoSepK=T KAlg= 1 I1Cent= 0 FoldK=F
 LinEq1:  Iter= 12 NonCon=     1 RMS=1.29D-09 Max=8.43D-09
 FoFJK:  IHMeth= 1 ICntrl=     0 DoSepK=T KAlg= 1 I1Cent= 0 FoldK=F
 LinEq1:  Iter= 13 NonCon=     1 RMS=1.39D-10 Max=8.00D-10
 FoFJK:  IHMeth= 1 ICntrl=     0 DoSepK=T KAlg= 1 I1Cent= 0 FoldK=F
 LinEq1:  Iter= 14 NonCon=     0 RMS=1.91D-11 Max=1.42D-10
 Linear equations converged to 1.000D-10 1.000D-09 after    14 iterations.
 FoFJK:  IHMeth= 1 ICntrl=     0 DoSepK=T KAlg= 1 I1Cent= 0 FoldK=F
[...]
      11 -> 16         0.27947
      11 -> 17         0.63685
 
 Excited state symmetry could not be determined.
 Excited State  11:      Singlet-?Sym    8.8256 eV  140.48 nm  f=0.0070  <S**2>=0.000
      12 -> 15         0.29480
      12 -> 18        -0.59891
      12 -> 19         0.17080
 
 Excited state symmetry could not be determined.
 Excited State  12:      Singlet-?Sym    9.0034 eV  137.71 nm  f=0.0056  <S**2>=0.000
      11 -> 15         0.16897
      11 -> 18        -0.64220
      11 -> 24         0.14861
 
 Excited state symmetry could not be determined.
 Excited State  13:      Singlet-?Sym    9.1540 eV  135.44 nm  f=0.0006  <S**2>=0.000
      12 -> 14         0.16266
      12 -> 18         0.14898
      12 -> 19         0.63307
      12 -> 23         0.11295
 
 Excited state symmetry could not be determined.
 Excited State  14:      Singlet-?Sym    9.2824 eV  133.57 nm  f=0.0057  <S**2>=0.000
      11 -> 13         0.10378
      11 -> 14         0.10291
      11 -> 19         0.66188
 
 Excited state symmetry could not be determined.
 Excited State  15:      Singlet-?Sym    9.7611 eV  127.02 nm  f=0.0000  <S**2>=0.000
      10 -> 16         0.66686
      10 -> 17        -0.18685
 
 Excited state symmetry could not be determined.
 Excited State  16:      Singlet-?Sym    9.8254 eV  126.19 nm  f=0.0051  <S**2>=0.000
      12 -> 13         0.10107
      12 -> 14        -0.11977
      12 -> 20         0.56748
      12 -> 23         0.34574
      12 -> 27        -0.10121
 
 Excited state symmetry could not be determined.
 Excited State  17:      Singlet-?Sym   10.1869 eV  121.71 nm  f=0.0052  <S**2>=0.000
      11 -> 13         0.13936
      11 -> 20         0.58958
      11 -> 21         0.22721
      11 -> 23         0.21838
 
 Excited state symmetry could not be determined.
 Excited State  18:      Singlet-?Sym   10.1969 eV  121.59 nm  f=0.0416  <S**2>=0.000
      11 -> 22        -0.10766
      12 -> 14         0.11622
      12 -> 20        -0.17038
      12 -> 21         0.52560
      12 -> 23         0.32689
      12 -> 24         0.13617
      12 -> 26         0.13518
 
 Excited state symmetry could not be determined.
 Excited State  19:      Singlet-?Sym   10.3086 eV  120.27 nm  f=0.0015  <S**2>=0.000
      11 -> 14         0.16461
      11 -> 20        -0.30319
      11 -> 21         0.44368
      11 -> 23         0.35514
      11 -> 26         0.10475
 
 Excited state symmetry could not be determined.
 Excited State  20:      Singlet-?Sym   10.3706 eV  119.55 nm  f=0.0019  <S**2>=0.000
      11 -> 21        -0.26547
      11 -> 23         0.33486
      11 -> 24         0.21602
      12 -> 22         0.46876
      12 -> 25        -0.10519
 SavETr:  write IOETrn=   770 NScale= 10 NData=  16 NLR=1 LETran=     370.
 FoFJK:  IHMeth= 1 ICntrl=     0 DoSepK=T KAlg= 1 I1Cent= 0 FoldK=F
 FoFJK:  IHMeth= 1 ICntrl=     0 DoSepK=T KAlg= 1 I1Cent= 0 FoldK=F
          IDoAtm=111111
 NEqPCM:  Using equilibrium solvation (IEInf=0, Eps=  78.3553, EpsInf=   1.7778)
          Differentiating once with respect to electric field.
                with respect to dipole field.
          Differentiating once with respect to nuclear coordinates.
          There are     1 degrees of freedom in the 1st order CPHF.  IDoFFX=0.
 FoFJK:  IHMeth= 1 ICntrl=     0 DoSepK=T KAlg= 1 I1Cent= 0 FoldK=F
 LinEq1:  Iter=  0 NonCon=     1 RMS=4.03D-02 Max=6.71D-01
 AX will form     1 AO Fock derivatives at one time.
 FoFJK:  IHMeth= 1 ICntrl=     0 DoSepK=T KAlg= 1 I1Cent= 0 FoldK=F
 LinEq1:  Iter=  1 NonCon=     1 RMS=1.61D-02 Max=2.46D-01
 FoFJK:  IHMeth= 1 ICntrl=     0 DoSepK=T KAlg= 1 I1Cent= 0 FoldK=F
 LinEq1:  Iter=  2 NonCon=     1 RMS=9.91D-03 Max=1.22D-01
 FoFJK:  IHMeth= 1 ICntrl=     0 DoSepK=T KAlg= 1 I1Cent= 0 FoldK=F
 LinEq1:  Iter=  3 NonCon=     1 RMS=2.51D-03 Max=2.98D-02
 FoFJK:  IHMeth= 1 ICntrl=     0 DoSepK=T KAlg= 1 I1Cent= 0 FoldK=F
 LinEq1:  Iter=  4 NonCon=     1 RMS=1.42D-03 Max=1.66D-02
 FoFJK:  IHMeth= 1 ICntrl=     0 DoSepK=T KAlg= 1 I1Cent= 0 FoldK=F
 LinEq1:  Iter=  5 NonCon=     1 RMS=2.59D-04 Max=2.79D-03
 FoFJK:  IHMeth= 1 ICntrl=     0 DoSepK=T KAlg= 1 I1Cent= 0 FoldK=F
 LinEq1:  Iter=  6 NonCon=     1 RMS=5.18D-05 Max=4.80D-04
 FoFJK:  IHMeth= 1 ICntrl=     0 DoSepK=T KAlg= 1 I1Cent= 0 FoldK=F
 LinEq1:  Iter=  7 NonCon=     1 RMS=1.05D-05 Max=9.95D-05
 FoFJK:  IHMeth= 1 ICntrl=     0 DoSepK=T KAlg= 1 I1Cent= 0 FoldK=F
 LinEq1:  Iter=  8 NonCon=     1 RMS=1.57D-06 Max=9.82D-06
 FoFJK:  IHMeth= 1 ICntrl=     0 DoSepK=T KAlg= 1 I1Cent= 0 FoldK=F
 LinEq1:  Iter=  9 NonCon=     1 RMS=2.15D-07 Max=1.76D-06
 FoFJK:  IHMeth= 1 ICntrl=     0 DoSepK=T KAlg= 1 I1Cent= 0 FoldK=F
 LinEq1:  Iter= 10 NonCon=     1 RMS=4.35D-08 Max=3.45D-07
 FoFJK:  IHMeth= 1 ICntrl=     0 DoSepK=T KAlg= 1 I1Cent= 0 FoldK=F
 LinEq1:  Iter= 11 NonCon=     1 RMS=7.21D-09 Max=6.36D-08
 FoFJK:  IHMeth= 1 ICntrl=     0 DoSepK=T KAlg= 1 I1Cent= 0 FoldK=F
 LinEq1:  Iter= 12 NonCon=     1 RMS=1.42D-09 Max=8.36D-09
 FoFJK:  IHMeth= 1 ICntrl=     0 DoSepK=T KAlg= 1 I1Cent= 0 FoldK=F
 LinEq1:  Iter= 13 NonCon=     1 RMS=2.12D-10 Max=2.44D-09
 FoFJK:  IHMeth= 1 ICntrl=     0 DoSepK=T KAlg= 1 I1Cent= 0 FoldK=F
 LinEq1:  Iter= 14 NonCon=     0 RMS=2.41D-11 Max=2.78D-10
 Linear equations converged to 1.000D-10 1.000D-09 after    14 iterations.
 FoFJK:  IHMeth= 1 ICntrl=     0 DoSepK=T KAlg= 1 I1Cent= 0 FoldK=F
 End of Minotr Frequency-dependent properties file   721 does not exist.
 End of Minotr Frequency-dependent properties file   722 does not exist.
 D1PCM: PCM CHGder 1st derivatives, ID1Alg=3 FixD1E=F DoIter=F DoCFld=F I1PDM=6.
 Calling FoFJK, ICntrl=      5127 FMM=F ISym2X=0 I1Cent= 0 IOpClX= 0 NMat=1 NMatS=1 NMatT=0.
 FoFJK:  IHMeth= 1 ICntrl=  5127 DoSepK=T KAlg= 1 I1Cent= 0 FoldK=F
 -------------------------------------------------------------------
 Center     Atomic                   Forces (Hartrees/Bohr)
 Number     Number              X              Y              Z
 -------------------------------------------------------------------
      1        6          -0.000063312    0.000304033   -0.000008071
      2        7           0.000017229   -0.000032811    0.000001750
      3        8          -0.000050313   -0.000097703    0.000002464
      4        1           0.000058888   -0.000006245    0.000000625
      5        1           0.000039992   -0.000022259    0.000000015
      6        1          -0.000002484   -0.000145014    0.000003217
 -------------------------------------------------------------------
 Cartesian Forces:  Max     0.000304033 RMS     0.000087120

 GradGradGradGradGradGradGradGradGradGradGradGradGradGradGradGradGradGrad
 Berny optimization.
 Using GEDIIS/GDIIS optimizer.
 Internal  Forces:  Max     0.000139436 RMS     0.000062063
 Search for a local minimum.
 Step number   6 out of a maximum of  100
 All quantities printed in internal units (Hartrees-Bohrs-Radians)
 Mixed Optimization -- En-DIIS/RFO-DIIS
 Swaping is turned off.
 Update second derivatives using D2CorX and points    1    2    3    4    5
                                                      6
 DE= -8.61D-07 DEPred=-6.89D-07 R= 1.25D+00
 Trust test= 1.25D+00 RLast= 2.97D-03 DXMaxT set to 4.77D-01
 The second derivative matrix:
                          R1        R2        R3        R4        R5
           R1           0.94185
           R2           0.44033   1.03084
           R3          -0.13384  -0.16481   0.31174
           R4          -0.04538  -0.08989   0.01131   0.46546
           R5           0.00907  -0.00077  -0.00487  -0.00906   0.46952
           A1          -0.08873  -0.04443   0.03691   0.03311  -0.00437
           A2          -0.03278  -0.07780   0.01075  -0.01104   0.00216
           A3           0.13276   0.15873  -0.04060  -0.02208   0.01552
           A4           0.00301  -0.00422   0.00850  -0.00286   0.00219
           A5           0.03713   0.00596   0.01080  -0.00508  -0.00255
           A6          -0.04014  -0.00174  -0.01930   0.00794   0.00036
           D1           0.00056   0.00012   0.00020   0.00007  -0.00013
           D2           0.00071   0.00018   0.00021   0.00010  -0.00017
           D3          -0.00085  -0.00020  -0.00026  -0.00011   0.00019
           D4          -0.00070  -0.00014  -0.00024  -0.00008   0.00015
                          A1        A2        A3        A4        A5
           A1           0.23337
           A2           0.02617   0.15505
           A3          -0.05772   0.00588   0.21541
           A4           0.00131  -0.00125   0.00452   0.15885
           A5          -0.00017  -0.00965   0.00813  -0.00499   0.15258
           A6          -0.00114   0.01090  -0.01264   0.00614   0.01241
           D1           0.00030  -0.00037   0.00004  -0.00011  -0.00020
           D2           0.00036  -0.00047   0.00004  -0.00014  -0.00024
           D3          -0.00043   0.00056  -0.00005   0.00017   0.00029
           D4          -0.00036   0.00046  -0.00005   0.00014   0.00025
                          A6        D1        D2        D3        D4
           A6           0.14146
           D1           0.00032   0.02456
           D2           0.00038   0.00001   0.02457
           D3          -0.00046  -0.00002  -0.00002   0.02458
           D4          -0.00039  -0.00001  -0.00002   0.00002   0.02457
     Eigenvalues ---    0.02455   0.02455   0.02458   0.10371   0.13849
     Eigenvalues ---    0.16137   0.23329   0.28531   0.45005   0.47536
     Eigenvalues ---    0.55789   1.526521000.000001000.000001000.00000
 En-DIIS/RFO-DIIS IScMMF=        0 using points:     6    5
 RFO step:  Lambda=-8.29224495D-08.
 DIIS coeffs:      1.31150     -0.31150
 Iteration  1 RMS(Cart)=  0.00028316 RMS(Int)=  0.00000008
 Iteration  2 RMS(Cart)=  0.00000008 RMS(Int)=  0.00000001
 Variable       Old X    -DE/DX   Delta X   Delta X   Delta X     New X
                                  (DIIS)     (GDIIS)  (Total)
    R1        2.47225   0.00013  -0.00015   0.00016   0.00002   2.47226
    R2        2.36881   0.00009   0.00007  -0.00002   0.00005   2.36885
    R3        2.18770  -0.00014  -0.00022  -0.00025  -0.00047   2.18723
    R4        1.94328   0.00002   0.00002   0.00007   0.00010   1.94338
    R5        1.91566   0.00002   0.00005  -0.00002   0.00003   1.91569
    A1        2.12129  -0.00006  -0.00034   0.00007  -0.00028   2.12101
    A2        2.10279   0.00003   0.00048  -0.00009   0.00040   2.10319
    A3        2.05911   0.00003  -0.00014   0.00002  -0.00012   2.05899
    A4        2.09771   0.00002   0.00018   0.00005   0.00023   2.09794
    A5        2.09790   0.00004   0.00033   0.00004   0.00037   2.09828
    A6        2.08757  -0.00006  -0.00051  -0.00009  -0.00060   2.08697
    D1       -0.00004   0.00000  -0.00002   0.00013   0.00011   0.00008
    D2        3.14157   0.00000  -0.00003   0.00017   0.00014  -3.14148
    D3       -3.14154   0.00000   0.00003  -0.00020  -0.00017   3.14148
    D4        0.00007   0.00000   0.00002  -0.00016  -0.00014  -0.00007
         Item               Value     Threshold  Converged?
 Maximum Force            0.000139     0.000450     YES
 RMS     Force            0.000062     0.000300     YES
 Maximum Displacement     0.000600     0.001800     YES
 RMS     Displacement     0.000283     0.001200     YES
 Predicted change in Energy=-8.076799D-08
 Optimization completed.
    -- Stationary point found.
                           ----------------------------
                           !   Optimized Parameters   !
                           ! (Angstroms and Degrees)  !
 --------------------------                            --------------------------
 ! Name  Definition              Value          Derivative Info.                !
 --------------------------------------------------------------------------------
 ! R1    R(1,2)                  1.3083         -DE/DX =    0.0001              !
 ! R2    R(1,3)                  1.2535         -DE/DX =    0.0001              !
 ! R3    R(1,6)                  1.1577         -DE/DX =   -0.0001              !
 ! R4    R(2,4)                  1.0283         -DE/DX =    0.0                 !
 ! R5    R(2,5)                  1.0137         -DE/DX =    0.0                 !
 ! A1    A(2,1,3)              121.5408         -DE/DX =   -0.0001              !
 ! A2    A(2,1,6)              120.481          -DE/DX =    0.0                 !
 ! A3    A(3,1,6)              117.9782         -DE/DX =    0.0                 !
 ! A4    A(1,2,4)              120.1899         -DE/DX =    0.0                 !
 ! A5    A(1,2,5)              120.201          -DE/DX =    0.0                 !
 ! A6    A(4,2,5)              119.6091         -DE/DX =   -0.0001              !
 ! D1    D(3,1,2,4)             -0.0022         -DE/DX =    0.0                 !
 ! D2    D(3,1,2,5)           -180.0015         -DE/DX =    0.0                 !
 ! D3    D(6,1,2,4)            180.0033         -DE/DX =    0.0                 !
 ! D4    D(6,1,2,5)              0.004          -DE/DX =    0.0                 !
 --------------------------------------------------------------------------------
 GradGradGradGradGradGradGradGradGradGradGradGradGradGradGradGradGradGrad

                          Input orientation:                          
 ---------------------------------------------------------------------
 Center     Atomic      Atomic             Coordinates (Angstroms)
 Number     Number       Type             X           Y           Z
 ---------------------------------------------------------------------
      1          6           0       -0.103646    0.403461    0.000024
      2          7           0        1.073788   -0.166788    0.000082
      3          8           0       -1.159468   -0.272223   -0.000083
      4          1           0        1.151757   -1.192167    0.000075
      5          1           0        1.914623    0.399454    0.000145
      6          1           0       -0.197284    1.557349   -0.000026
 ---------------------------------------------------------------------
                    Distance matrix (angstroms):
                    1          2          3          4          5
     1  C    0.000000
     2  N    1.308256   0.000000
     3  O    1.253519   2.235743   0.000000
     4  H    2.030287   1.028339   2.487580   0.000000
     5  H    2.018273   1.013723   3.146615   1.764999   0.000000
     6  H    1.157682   2.142025   2.067156   3.062638   2.408500
                    6
     6  H    0.000000
 Symmetry turned off by external request.
 Stoichiometry    CH3NO
 Framework group  C1[X(CH3NO)]
 Deg. of freedom    12
 Full point group                 C1      NOp   1
 Rotational constants (GHZ):     67.3176857     11.8068266     10.0450318

 **********************************************************************

            Population analysis using the SCF density.

 **********************************************************************

 Alpha  occ. eigenvalues --  -19.19817 -14.44543 -10.37862  -1.12155  -1.00465
 Alpha  occ. eigenvalues --   -0.70480  -0.63634  -0.56275  -0.48949  -0.48590
 Alpha  occ. eigenvalues --   -0.34825  -0.33677
 Alpha virt. eigenvalues --    0.01684   0.03144   0.04386   0.04821   0.07746
 Alpha virt. eigenvalues --    0.08172   0.09485   0.12741   0.13878   0.15038
 Alpha virt. eigenvalues --    0.15809   0.17794   0.20868   0.20928   0.21057
 Alpha virt. eigenvalues --    0.25684   0.26243   0.28071   0.29332   0.35285
 Alpha virt. eigenvalues --    0.36082   0.36827   0.39494   0.44358   0.45352
 Alpha virt. eigenvalues --    0.48107   0.50008   0.51015   0.52379   0.54601
 Alpha virt. eigenvalues --    0.56175   0.57223   0.57921   0.60262   0.66062
 Alpha virt. eigenvalues --    0.68904   0.72129   0.75011   0.80154   0.83403
 Alpha virt. eigenvalues --    0.85827   0.87542   0.92282   1.05059   1.06672
 Alpha virt. eigenvalues --    1.07154   1.12927   1.17783   1.23225   1.27388
 Alpha virt. eigenvalues --    1.29465   1.37384   1.42360   1.47834   1.50921
 Alpha virt. eigenvalues --    1.65560   1.68618   1.72068   1.75881   1.79561
 Alpha virt. eigenvalues --    1.81253   1.87194   1.97447   2.00958   2.03398
 Alpha virt. eigenvalues --    2.06743   2.14377   2.17034   2.22531   2.25530
 Alpha virt. eigenvalues --    2.46402   2.50330   2.56030   2.61965   2.67641
 Alpha virt. eigenvalues --    2.87730   3.01946   3.17499   3.27343   3.40654
 Alpha virt. eigenvalues --    3.45864   3.46217   3.71678   3.75063
          Condensed to atoms (all electrons):
              1          2          3          4          5          6
     1  C    4.849727   0.336624   0.284683  -0.178530  -0.170966   0.194969
     2  N    0.336624   5.846677  -0.079407   0.402423   0.359480  -0.037956
     3  O    0.284683  -0.079407   8.492981  -0.004895   0.002402  -0.096107
     4  H   -0.178530   0.402423  -0.004895   0.999273  -0.198173   0.039950
     5  H   -0.170966   0.359480   0.002402  -0.198173   1.040756  -0.006971
     6  H    0.194969  -0.037956  -0.096107   0.039950  -0.006971   1.075530
 Mulliken atomic charges:
              1
     1  C    0.683492
     2  N    0.172159
     3  O   -0.599659
     4  H   -0.060049
     5  H   -0.026528
     6  H   -0.169415
 Sum of Mulliken atomic charges =   0.00000
 Mulliken charges with hydrogens summed into heavy atoms:
              1
     1  C    0.514077
     2  N    0.085582
     3  O   -0.599659
 Sum of Mulliken charges with hydrogens summed into heavy atoms =   0.00000
 Electronic spatial extent (au):  <R**2>=            145.2898
 Charge=              0.0000 electrons
 Dipole moment (field-independent basis, Debye):
    X=              5.4092    Y=              1.3618    Z=              0.0004  Tot=              5.5780
 Quadrupole moment (field-independent basis, Debye-Ang):
   XX=            -18.4724   YY=            -15.0384   ZZ=            -19.2913
   XY=             -1.8473   XZ=              0.0001   YZ=             -0.0001
 Traceless Quadrupole moment (field-independent basis, Debye-Ang):
   XX=             -0.8717   YY=              2.5623   ZZ=             -1.6906
   XY=             -1.8473   XZ=              0.0001   YZ=             -0.0001
 Octapole moment (field-independent basis, Debye-Ang**2):
  XXX=             17.2151  YYY=             -0.1777  ZZZ=             -0.0007  XYY=              3.6150
  XXY=              1.3945  XXZ=              0.0011  XZZ=             -0.6899  YZZ=              0.0934
  YYZ=              0.0000  XYZ=              0.0001
 Hexadecapole moment (field-independent basis, Debye-Ang**3):
 XXXX=           -111.0309 YYYY=            -35.0446 ZZZZ=            -19.7138 XXXY=              1.5345
 XXXZ=             -0.0024 YYYX=             -5.8558 YYYZ=             -0.0007 ZZZX=             -0.0042
 ZZZY=             -0.0002 XXYY=            -23.8367 XXZZ=            -25.8549 YYZZ=            -10.7295
 XXYZ=              0.0002 YYXZ=             -0.0010 ZZXY=             -0.1601
 N-N= 7.115924067208D+01 E-N=-5.404099837984D+02  KE= 1.686924994601D+02
 1\1\GINC-CLODOMIRA\FOpt\RTD-CAM-B3LYP-FC\Aug-CC-pVDZ\C1H3N1O1\DIEGOA\2
 8-Oct-2019\0\\# cam-b3lyp/aug-cc-pvdz opt(maxcycle=100) nosymm td(root
 =5,nstates=20) SCRF=PCM int(grid=ultrafine)\\Title\\0,1\C,-0.103645643
 7,0.4034609459,0.0000235529\N,1.0737878257,-0.1667878183,0.0000817983\
 O,-1.1594677797,-0.2722231202,-0.0000828394\H,1.151756525,-1.192167049
 8,0.0000749943\H,1.914623142,0.3994536991,0.0001453932\H,-0.1972840693
 ,1.5573493434,-0.0000258993\\Version=EM64L-G09RevA.01\HF=-169.8590379\
 RMSD=6.294e-09\RMSF=8.712e-05\Dipole=1.210437,0.4250098,0.0000711\PG=C
 01 [X(C1H3N1O1)]\\@


 The impersonal hand of government can
 never replace the helping hand of a neighbor.
                        -- Hubert H. Humphrey
 Job cpu time:  0 days  1 hours 16 minutes 27.8 seconds.
 File lengths (MBytes):  RWF=     52 Int=      0 D2E=      0 Chk=      8 Scr=      1
 Normal termination of Gaussian 09 at Mon Oct 28 13:10:49 2019.
