 Entering Gaussian System, Link 0=g09
 Input=td6-opt.com
 Output=td6-opt.log
 Initial command:
 /home/diegoa/progs/g09/l1.exe /home/diegoa/g09scratch/Gau-7674.inp -scrdir=/home/diegoa/g09scratch/
 Default is to use a total of   4 processors:
                                4 via shared-memory
                                1 via Linda
 Entering Link 1 = /home/diegoa/progs/g09/l1.exe PID=      7676.
  
 Copyright (c) 1988,1990,1992,1993,1995,1998,2003,2009, Gaussian, Inc.
                  All Rights Reserved.
  
 This is part of the Gaussian(R) 09 program.  It is based on
 the Gaussian(R) 03 system (copyright 2003, Gaussian, Inc.),
 the Gaussian(R) 98 system (copyright 1998, Gaussian, Inc.),
 the Gaussian(R) 94 system (copyright 1995, Gaussian, Inc.),
 the Gaussian 92(TM) system (copyright 1992, Gaussian, Inc.),
 the Gaussian 90(TM) system (copyright 1990, Gaussian, Inc.),
 the Gaussian 88(TM) system (copyright 1988, Gaussian, Inc.),
 the Gaussian 86(TM) system (copyright 1986, Carnegie Mellon
 University), and the Gaussian 82(TM) system (copyright 1983,
 Carnegie Mellon University). Gaussian is a federally registered
 trademark of Gaussian, Inc.
  
 This software contains proprietary and confidential information,
 including trade secrets, belonging to Gaussian, Inc.
  
 This software is provided under written license and may be
 used, copied, transmitted, or stored only in accord with that
 written license.
  
 The following legend is applicable only to US Government
 contracts under FAR:
  
                    RESTRICTED RIGHTS LEGEND
  
 Use, reproduction and disclosure by the US Government is
 subject to restrictions as set forth in subparagraphs (a)
 and (c) of the Commercial Computer Software - Restricted
 Rights clause in FAR 52.227-19.
  
 Gaussian, Inc.
 340 Quinnipiac St., Bldg. 40, Wallingford CT 06492
  
  
 ---------------------------------------------------------------
 Warning -- This program may not be used in any manner that
 competes with the business of Gaussian, Inc. or will provide
 assistance to any competitor of Gaussian, Inc.  The licensee
 of this program is prohibited from giving any competitor of
 Gaussian, Inc. access to this program.  By using this program,
 the user acknowledges that Gaussian, Inc. is engaged in the
 business of creating and licensing software in the field of
 computational chemistry and represents and warrants to the
 licensee that it is not a competitor of Gaussian, Inc. and that
 it will not use this program in any manner prohibited above.
 ---------------------------------------------------------------
  

 Cite this work as:
 Gaussian 09, Revision A.01,
 M. J. Frisch, G. W. Trucks, H. B. Schlegel, G. E. Scuseria, 
 M. A. Robb, J. R. Cheeseman, G. Scalmani, V. Barone, B. Mennucci, 
 G. A. Petersson, H. Nakatsuji, M. Caricato, X. Li, H. P. Hratchian, 
 A. F. Izmaylov, J. Bloino, G. Zheng, J. L. Sonnenberg, M. Hada, 
 M. Ehara, K. Toyota, R. Fukuda, J. Hasegawa, M. Ishida, T. Nakajima, 
 Y. Honda, O. Kitao, H. Nakai, T. Vreven, J. A. Montgomery, Jr., 
 J. E. Peralta, F. Ogliaro, M. Bearpark, J. J. Heyd, E. Brothers, 
 K. N. Kudin, V. N. Staroverov, R. Kobayashi, J. Normand, 
 K. Raghavachari, A. Rendell, J. C. Burant, S. S. Iyengar, J. Tomasi, 
 M. Cossi, N. Rega, J. M. Millam, M. Klene, J. E. Knox, J. B. Cross, 
 V. Bakken, C. Adamo, J. Jaramillo, R. Gomperts, R. E. Stratmann, 
 O. Yazyev, A. J. Austin, R. Cammi, C. Pomelli, J. W. Ochterski, 
 R. L. Martin, K. Morokuma, V. G. Zakrzewski, G. A. Voth, 
 P. Salvador, J. J. Dannenberg, S. Dapprich, A. D. Daniels, 
 O. Farkas, J. B. Foresman, J. V. Ortiz, J. Cioslowski, 
 and D. J. Fox, Gaussian, Inc., Wallingford CT, 2009.
 
 ******************************************
 Gaussian 09:  EM64L-G09RevA.01  8-May-2009
                28-Oct-2019 
 ******************************************
 %chk=td6-opt.chk
 %NProcShared=4
 Will use up to    4 processors via shared memory.
 Default route:  MP2=Direct MaxDisk=1000GB DenFit
 ----------------------------------------------------------------------
 # cam-b3lyp/aug-cc-pvdz opt(maxcycle=100) nosymm td(root=6,nstates=20)
  SCRF=PCM int(grid=ultrafine)
 ----------------------------------------------------------------------
 1/6=100,14=-1,18=20,19=15,26=3,38=1/1,3;
 2/9=110,12=2,15=1,17=6,18=5,40=1/2;
 3/5=16,7=10,11=2,16=1,25=1,30=1,70=2201,71=1,72=1,74=-40,75=-5,82=47/1,2,8,3;
 4//1;
 5/5=2,38=5/2;
 8/6=1,10=1,107=6,108=20/1;
 9/8=6,15=2,41=20,42=1/14;
 10/5=4,31=1/2;
 6/7=2,8=2,9=2,10=2/1;
 7/12=6,13=5,14=6,30=1/1,2,3,16;
 1/6=100,14=-1,18=20,19=15/3(2);
 2/9=110,15=1/2;
 99//99;
 2/9=110,15=1/2;
 3/5=16,7=10,11=2,16=1,25=1,30=1,70=2205,71=1,74=-40,75=-5,82=47/1,2,8,3;
 4/5=5,16=3/1;
 5/5=2,38=5/2;
 8/6=1,10=1,107=6,108=20/1;
 9/8=6,15=2,41=20,42=1,49=4/14;
 10/5=4,31=1/2;
 7/12=6,13=5,14=6,30=1/1,2,3,16;
 1/6=100,14=-1,18=20,19=15/3(-8);
 2/9=110,15=1/2;
 6/7=2,8=2,9=2,10=2/1;
 99//99;
 -----
 Title
 -----
 Symbolic Z-matrix:
 Charge =  0 Multiplicity = 1
 6                    -0.14841   0.38941  -0.00001 
 7                     1.07589  -0.16092   0.00006 
 8                    -1.19901  -0.24437  -0.00008 
 1                     1.18201  -1.16665   0.00009 
 1                     1.90298   0.41696   0.00015 
 1                    -0.13369   1.49466  -0.00001 
 

 GradGradGradGradGradGradGradGradGradGradGradGradGradGradGradGradGradGrad
 Berny optimization.
 Initialization pass.
                           ----------------------------
                           !    Initial Parameters    !
                           ! (Angstroms and Degrees)  !
 --------------------------                            --------------------------
 ! Name  Definition              Value          Derivative Info.                !
 --------------------------------------------------------------------------------
 ! R1    R(1,2)                  1.3423         estimate D2E/DX2                !
 ! R2    R(1,3)                  1.227          estimate D2E/DX2                !
 ! R3    R(1,6)                  1.1053         estimate D2E/DX2                !
 ! R4    R(2,4)                  1.0113         estimate D2E/DX2                !
 ! R5    R(2,5)                  1.009          estimate D2E/DX2                !
 ! A1    A(2,1,3)              124.6949         estimate D2E/DX2                !
 ! A2    A(2,1,6)              113.4417         estimate D2E/DX2                !
 ! A3    A(3,1,6)              121.8634         estimate D2E/DX2                !
 ! A4    A(1,2,4)              120.2276         estimate D2E/DX2                !
 ! A5    A(1,2,5)              120.8539         estimate D2E/DX2                !
 ! A6    A(4,2,5)              118.9185         estimate D2E/DX2                !
 ! D1    D(3,1,2,4)             -0.0023         estimate D2E/DX2                !
 ! D2    D(3,1,2,5)           -179.9974         estimate D2E/DX2                !
 ! D3    D(6,1,2,4)            179.9982         estimate D2E/DX2                !
 ! D4    D(6,1,2,5)              0.0031         estimate D2E/DX2                !
 --------------------------------------------------------------------------------
 Trust Radius=3.00D-01 FncErr=1.00D-07 GrdErr=1.00D-06
 Number of steps in this run= 100 maximum allowed number of steps= 100.
 GradGradGradGradGradGradGradGradGradGradGradGradGradGradGradGradGradGrad

                          Input orientation:                          
 ---------------------------------------------------------------------
 Center     Atomic      Atomic             Coordinates (Angstroms)
 Number     Number       Type             X           Y           Z
 ---------------------------------------------------------------------
      1          6           0       -0.148406    0.389411   -0.000008
      2          7           0        1.075890   -0.160923    0.000060
      3          8           0       -1.199011   -0.244372   -0.000076
      4          1           0        1.182007   -1.166648    0.000092
      5          1           0        1.902982    0.416959    0.000154
      6          1           0       -0.133692    1.494659   -0.000005
 ---------------------------------------------------------------------
                    Distance matrix (angstroms):
                    1          2          3          4          5
     1  C    0.000000
     2  N    1.342300   0.000000
     3  O    1.226969   2.276431   0.000000
     4  H    2.047271   1.011308   2.553398   0.000000
     5  H    2.051573   1.008974   3.171706   1.740005   0.000000
     6  H    1.105346   2.050376   2.039395   2.968774   2.304231
                    6
     6  H    0.000000
 Symmetry turned off by external request.
 Stoichiometry    CH3NO
 Framework group  C1[X(CH3NO)]
 Deg. of freedom    12
 Full point group                 C1      NOp   1
 Rotational constants (GHZ):     73.1415518     11.3903967      9.8555789
 Standard basis: Aug-CC-pVDZ (5D, 7F)
 Integral buffers will be    131072 words long.
 Raffenetti 2 integral format.
 Two-electron integral symmetry is turned off.
    96 basis functions,   162 primitive gaussians,   102 cartesian basis functions
    12 alpha electrons       12 beta electrons
       nuclear repulsion energy        71.1695258840 Hartrees.
 NAtoms=    6 NActive=    6 NUniq=    6 SFac= 7.50D-01 NAtFMM=   80 NAOKFM=F Big=F
 Standard density basis: Auto (5D, 7F)
   327 Density fitting functions
 ------------------------------------------------------------------------------
 Polarizable Continuum Model (PCM)
 =================================
 Model                : PCM.
 Atomic radii         : UFF (Universal Force Field).
 Polarization charges : Total charges.
 Charge compensation  : None.
 Solution method      : Matrix inversion.
 Cavity type          : Scaled VdW (van der Waals Surface) (Alpha=1.100).
 Cavity algorithm     : GePol (No added spheres)
                        Default sphere list used, NSphG=    6.
                        Lebedev-Laikov grids with approx.  5.0 points / Ang**2.
                        Smoothing algorithm: Karplus/York (Gamma=1.0000).
                        Polarization charges: spherical gaussians, with
                                              point-specific exponents (IZeta= 3).
                        Self-potential: point-specific (ISelfS= 7).
                        Self-field    : sphere-specific E.n sum rule (ISelfD= 2).
 1st derivatives      : Analytical E(r).r(x)/FMM algorithm (CHGder, D1EAlg=3).
                        Cavity 1st derivative terms included.
 Solvent              : Water, Eps=  78.355300 Eps(inf)=   1.777849
 ------------------------------------------------------------------------------
 Spheres list:
 ISph  on   Nord    Re0     Alpha      Xe            Ye            Ze
    1   C      1    1.926   1.100     -0.148406      0.389411     -0.000008
    2   N      2    1.830   1.100      1.075890     -0.160923      0.000060
    3   O      3    1.750   1.100     -1.199011     -0.244372     -0.000076
    4   H      4    1.443   1.100      1.182007     -1.166648      0.000092
    5   H      5    1.443   1.100      1.902982      0.416959      0.000154
    6   H      6    1.443   1.100     -0.133692      1.494659     -0.000005
 ------------------------------------------------------------------------------
 One-electron integrals computed using PRISM.
 NBasis=    96 RedAO= T  NBF=    96
 NBsUse=    96 1.00D-06 NBFU=    96
 Harris functional with IExCor=20419 diagonalized for initial guess.
 ExpMin= 2.97D-02 ExpMax= 1.17D+04 ExpMxC= 4.01D+02 IAcc=3 IRadAn=         5 AccDes= 0.00D+00
 HarFok:  IExCor=20419 AccDes= 0.00D+00 IRadAn=         5 IDoV= 1
 ScaDFX=  1.000000  1.000000  1.000000  1.000000
 FoFCou: FMM=F IPFlag=           0 FMFlag=      100000 FMFlg1=           0
         NFxFlg=           0 DoJE=T BraDBF=F KetDBF=T FulRan=T
         Omega=  0.000000  0.000000  1.000000  0.000000  0.000000 ICntrl=     500 IOpCl=  0
         NMat0=    1 NMatS0=    1 NMatT0=    0 NMatD0=    1 NMtDS0=    0 NMtDT0=    0
         I1Cent=           4 NGrid=           0.
 Symmetry not used in FoFCou.
 Requested convergence on RMS density matrix=1.00D-08 within 128 cycles.
 Requested convergence on MAX density matrix=1.00D-06.
 Requested convergence on             energy=1.00D-06.
 No special actions if energy rises.
 FoFJK:  IHMeth= 1 ICntrl=     0 DoSepK=T KAlg= 1 I1Cent= 0 FoldK=F
 FoFJK:  IHMeth= 1 ICntrl=     0 DoSepK=T KAlg= 1 I1Cent= 0 FoldK=F
 FoFJK:  IHMeth= 1 ICntrl=     0 DoSepK=T KAlg= 1 I1Cent= 0 FoldK=F
 FoFJK:  IHMeth= 1 ICntrl=     0 DoSepK=T KAlg= 1 I1Cent= 0 FoldK=F
 FoFJK:  IHMeth= 1 ICntrl=     0 DoSepK=T KAlg= 1 I1Cent= 0 FoldK=F
 FoFJK:  IHMeth= 1 ICntrl=     0 DoSepK=T KAlg= 1 I1Cent= 0 FoldK=F
 FoFJK:  IHMeth= 1 ICntrl=     0 DoSepK=T KAlg= 1 I1Cent= 0 FoldK=F
 FoFJK:  IHMeth= 1 ICntrl=     0 DoSepK=T KAlg= 1 I1Cent= 0 FoldK=F
 FoFJK:  IHMeth= 1 ICntrl=     0 DoSepK=T KAlg= 1 I1Cent= 0 FoldK=F
 FoFJK:  IHMeth= 1 ICntrl=     0 DoSepK=T KAlg= 1 I1Cent= 0 FoldK=F
 FoFJK:  IHMeth= 1 ICntrl=     0 DoSepK=T KAlg= 1 I1Cent= 0 FoldK=F
 Error on total polarization charges =  0.01050
 SCF Done:  E(RCAM-B3LYP) =  -169.864201704     A.U. after   11 cycles
             Convg  =    0.4600D-08             -V/T =  2.0064
 ExpMin= 2.97D-02 ExpMax= 1.17D+04 ExpMxC= 4.01D+02 IAcc=3 IRadAn=         5 AccDes= 0.00D+00
 HarFok:  IExCor=  205 AccDes= 0.00D+00 IRadAn=         5 IDoV=-2
 ScaDFX=  1.000000  1.000000  1.000000  1.000000
 Range of M.O.s used for correlation:     4    96
 NBasis=    96 NAE=    12 NBE=    12 NFC=     3 NFV=     0
 NROrb=     93 NOA=     9 NOB=     9 NVA=    84 NVB=    84

 **** Warning!!: The largest alpha MO coefficient is  0.18832976D+02

 NEqPCM:  Using equilibrium solvation (IEInf=0, Eps=  78.3553, EpsInf=   1.7778)
    80 initial guesses have been made.
 Convergence on wavefunction:    0.000001000000000
 Iteration     1 Dimension    80 NMult    80
 CISAX will form    80 AO SS matrices at one time.
 FoFJK:  IHMeth= 1 ICntrl=     0 DoSepK=T KAlg= 1 I1Cent= 0 FoldK=F
 FoFJK:  IHMeth= 1 ICntrl=     0 DoSepK=T KAlg= 1 I1Cent= 0 FoldK=F
 New state      1 was old state      6
 New state      2 was old state      1
 New state      3 was old state      2
 New state      4 was old state      3
 New state      6 was old state      4
 New state      8 was old state     11
 New state     10 was old state      8
 New state     11 was old state     10
 New state     13 was old state     14
 New state     14 was old state     13
 No map to state     17
 New state     20 was old state     17
 Iteration     2 Dimension   120 NMult   120
 FoFJK:  IHMeth= 1 ICntrl=     0 DoSepK=T KAlg= 1 I1Cent= 0 FoldK=F
 FoFJK:  IHMeth= 1 ICntrl=     0 DoSepK=T KAlg= 1 I1Cent= 0 FoldK=F
 New state      7 was old state      8
 New state      8 was old state      7
 New state     13 was old state     14
 New state     14 was old state     13
 New state     16 was old state     17
 New state     17 was old state     16
 New state     19 was old state     20
 New state     20 was old state     19
 Iteration     3 Dimension   160 NMult   160
 FoFJK:  IHMeth= 1 ICntrl=     0 DoSepK=T KAlg= 1 I1Cent= 0 FoldK=F
 FoFJK:  IHMeth= 1 ICntrl=     0 DoSepK=T KAlg= 1 I1Cent= 0 FoldK=F
 Iteration     4 Dimension   200 NMult   200
 FoFJK:  IHMeth= 1 ICntrl=     0 DoSepK=T KAlg= 1 I1Cent= 0 FoldK=F
 FoFJK:  IHMeth= 1 ICntrl=     0 DoSepK=T KAlg= 1 I1Cent= 0 FoldK=F
 Iteration     5 Dimension   240 NMult   240
 FoFJK:  IHMeth= 1 ICntrl=     0 DoSepK=T KAlg= 1 I1Cent= 0 FoldK=F
 FoFJK:  IHMeth= 1 ICntrl=     0 DoSepK=T KAlg= 1 I1Cent= 0 FoldK=F
 Iteration     6 Dimension   280 NMult   280
 FoFJK:  IHMeth= 1 ICntrl=     0 DoSepK=T KAlg= 1 I1Cent= 0 FoldK=F
 FoFJK:  IHMeth= 1 ICntrl=     0 DoSepK=T KAlg= 1 I1Cent= 0 FoldK=F
 Iteration     7 Dimension   306 NMult   306
 FoFJK:  IHMeth= 1 ICntrl=     0 DoSepK=T KAlg= 1 I1Cent= 0 FoldK=F
 FoFJK:  IHMeth= 1 ICntrl=     0 DoSepK=T KAlg= 1 I1Cent= 0 FoldK=F
 Iteration     8 Dimension   310 NMult   310
 FoFJK:  IHMeth= 1 ICntrl=     0 DoSepK=T KAlg= 1 I1Cent= 0 FoldK=F
 FoFJK:  IHMeth= 1 ICntrl=     0 DoSepK=T KAlg= 1 I1Cent= 0 FoldK=F
 ***********************************************************************
 Excited states from <AA,BB:AA,BB> singles matrix:
 ***********************************************************************
 
 Ground to excited state transition electric dipole moments (Au):
       state          X           Y           Z        Dip. S.      Osc.
         1         0.0000      0.0000      0.0822      0.0068      0.0010
         2         0.0464      0.1473      0.0001      0.0238      0.0041
         3        -0.0001      0.0000      0.2981      0.0889      0.0154
         4         1.3664      0.0327      0.0001      1.8682      0.3332
         5        -0.3274      0.8521      0.0000      0.8333      0.1562
         6         0.0000     -0.0001      0.0624      0.0039      0.0007
         7         0.7165      0.2569     -0.0001      0.5794      0.1134
         8        -0.0001     -0.0001     -0.4373      0.1912      0.0377
         9         0.0000      0.0000      0.1922      0.0369      0.0076
        10        -0.1655     -0.0543      0.0000      0.0303      0.0064
        11         0.1199     -0.1249      0.0000      0.0300      0.0066
        12         0.0000      0.0000      0.1840      0.0338      0.0076
        13        -0.0770     -0.0200     -0.0001      0.0063      0.0014
        14         0.0000      0.0000     -0.2236      0.0500      0.0115
        15         0.1673      0.0592      0.0000      0.0315      0.0077
        16         0.0000      0.0000     -0.0739      0.0055      0.0014
        17         0.0000      0.0000     -0.1805      0.0326      0.0082
        18        -0.0001     -0.0002     -0.1090      0.0119      0.0030
        19        -0.1834     -0.3992     -0.0001      0.1930      0.0497
        20        -0.0001     -0.0002      0.1933      0.0374      0.0096
 Ground to excited state transition velocity dipole moments (Au):
       state          X           Y           Z        Dip. S.      Osc.
         1         0.0000      0.0000     -0.0210      0.0004      0.0014
         2        -0.0100     -0.0389      0.0000      0.0016      0.0042
         3         0.0000      0.0000     -0.0748      0.0056      0.0144
         4        -0.3597     -0.0077      0.0000      0.1295      0.3227
         5         0.0919     -0.2362      0.0000      0.0642      0.1522
         6         0.0000      0.0000     -0.0185      0.0003      0.0008
         7        -0.2085     -0.0741      0.0000      0.0490      0.1112
         8         0.0000      0.0000      0.1255      0.0158      0.0356
         9         0.0000      0.0000     -0.0607      0.0037      0.0080
        10         0.0437      0.0149      0.0000      0.0021      0.0044
        11        -0.0375      0.0398      0.0000      0.0030      0.0060
        12         0.0000      0.0000     -0.0591      0.0035      0.0070
        13         0.0160      0.0060      0.0000      0.0003      0.0006
        14         0.0000      0.0000      0.0774      0.0060      0.0116
        15        -0.0606     -0.0149      0.0000      0.0039      0.0071
        16         0.0000      0.0000      0.0288      0.0008      0.0015
        17         0.0000      0.0000      0.0719      0.0052      0.0092
        18         0.0000      0.0001      0.0307      0.0009      0.0016
        19         0.0672      0.1554      0.0000      0.0287      0.0495
        20         0.0000      0.0001     -0.0730      0.0053      0.0092
 Ground to excited state transition magnetic dipole moments (Au):
       state          X           Y           Z
         1        -0.9740     -0.3873     -0.0001
         2         0.0000      0.0001      0.5412
         3         0.0064      0.5643     -0.0001
         4         0.0000      0.0000      0.2587
         5         0.0000      0.0000     -0.1128
         6         0.0418     -0.0090      0.0000
         7         0.0000      0.0001      0.5025
         8        -0.0404      0.3354     -0.0001
         9        -0.0626      0.1138      0.0000
        10         0.0000      0.0000      0.0845
        11         0.0000     -0.0001     -0.0164
        12         0.1077     -0.2556      0.0000
        13         0.0000     -0.0001      0.1960
        14        -0.0774     -0.5400     -0.0001
        15         0.0000      0.0000     -0.3668
        16        -0.9732      0.8013      0.0000
        17         0.2623     -0.6644      0.0000
        18         0.1768     -0.5239      0.0000
        19        -0.0001      0.0004     -0.0263
        20         0.0035     -0.1046      0.0000
 <0|del|b> * <b|rxdel|0> + <0|del|b> * <b|delr+rdel|0>
 Rotatory Strengths (R) in cgs (10**-40 erg-esu-cm/Gauss)
       state          XX          YY          ZZ    R(velocity)
         1         0.0011      0.0052      0.0017      0.0027
 Total R(velocity) tensor for State=          1
                 1             2             3 
      1   0.110443D-02 -0.115851D-02  0.000000D+00
      2   0.103432D-02  0.523382D-02  0.000000D+00
      3  -0.288462D+02 -0.130520D+02  0.172735D-02
         2        -0.0262     -0.0048      0.0006     -0.0101
 Total R(velocity) tensor for State=          2
                 1             2             3 
      1  -0.262268D-01 -0.186277D-02  0.253178D+02
      2  -0.758332D-02 -0.484289D-02  0.199546D+02
      3   0.424875D+01 -0.109556D+01  0.632867D-03
         3         0.0277      0.0057      0.0007      0.0114
 Total R(velocity) tensor for State=          3
                 1             2             3 
      1   0.277001D-01 -0.566982D-02  0.409280D-05
      2   0.784762D-02  0.574073D-02  0.190879D-05
      3  -0.182200D+01  0.969135D+01  0.681105D-03
         4        -0.0107     -0.0090      0.0046     -0.0050
 Total R(velocity) tensor for State=          4
                 1             2             3 
      1  -0.106549D-01 -0.119266D-01  0.194034D+03
      2   0.367718D-02 -0.903324D-02 -0.619726D+02
      3  -0.598927D+00  0.280613D+02  0.458176D-02
         5        -0.0005      0.0009     -0.0028     -0.0008
 Total R(velocity) tensor for State=          5
                 1             2             3 
      1  -0.548710D-03 -0.589568D-03 -0.224316D+02
      2   0.115585D-02  0.949854D-03  0.298328D+02
      3   0.190214D+02  0.739973D+01 -0.276521D-02
         6        -0.0017     -0.0008      0.0008     -0.0006
 Total R(velocity) tensor for State=          6
                 1             2             3 
      1  -0.171410D-02 -0.718180D-03  0.000000D+00
      2  -0.516912D-02 -0.803579D-03  0.000000D+00
      3  -0.135621D+01  0.415202D+00  0.809637D-03
         7         0.0005      0.0149      0.0101      0.0085
 Total R(velocity) tensor for State=          7
                 1             2             3 
      1   0.538735D-03  0.436639D-01  0.207254D+03
      2  -0.587463D-02  0.148685D-01 -0.760412D+01
      3  -0.620806D+01  0.174641D+02  0.101053D-01
         8        -0.0129     -0.0141      0.0037     -0.0078
 Total R(velocity) tensor for State=          8
                 1             2             3 
      1  -0.128824D-01 -0.378815D-01  0.107358D-04
      2   0.661368D-02 -0.141422D-01  0.000000D+00
      3   0.618290D+01 -0.331765D+02  0.374961D-02
         9         0.0012      0.0000     -0.0007      0.0002
 Total R(velocity) tensor for State=          9
                 1             2             3 
      1   0.118168D-02 -0.139574D-02  0.000000D+00
      2  -0.561123D-03  0.363601D-04  0.000000D+00
      3  -0.380971D+01  0.320862D-03 -0.677637D-03
        10        -0.0001      0.0006     -0.0003      0.0001
 Total R(velocity) tensor for State=         10
                 1             2             3 
      1  -0.741230D-04 -0.703752D-03 -0.104572D+02
      2  -0.247265D-03  0.616596D-03 -0.124592D+01
      3  -0.266487D+01  0.782856D+01 -0.319292D-03
        11        -0.0002     -0.0045     -0.0009     -0.0018
 Total R(velocity) tensor for State=         11
                 1             2             3 
      1  -0.201066D-03 -0.623724D-02 -0.169255D+02
      2  -0.804807D-02 -0.446040D-02  0.871933D+01
      3   0.899208D+00  0.846471D+00 -0.886715D-03
        12         0.0002      0.0048     -0.0002      0.0016
 Total R(velocity) tensor for State=         12
                 1             2             3 
      1   0.171601D-03  0.702666D-02  0.000000D+00
      2   0.780809D-02  0.476047D-02  0.106634D-05
      3   0.638446D+00  0.294072D+01 -0.214292D-03
        13         0.0026      0.0061     -0.0017      0.0023
 Total R(velocity) tensor for State=         13
                 1             2             3 
      1   0.259713D-02  0.408561D-02 -0.275256D+01
      2  -0.358300D-02  0.606983D-02  0.878597D+00
      3   0.841917D+00 -0.225424D+01 -0.172814D-02
        14        -0.0026     -0.0056      0.0025     -0.0019
 Total R(velocity) tensor for State=         14
                 1             2             3 
      1  -0.260672D-02 -0.326675D-02  0.000000D+00
      2   0.296628D-02 -0.564343D-02  0.000000D+00
      3   0.170893D+02  0.352193D+02  0.247310D-02
        15         0.0005     -0.0005     -0.0013     -0.0004
 Total R(velocity) tensor for State=         15
                 1             2             3 
      1   0.498560D-03 -0.266128D-02 -0.157223D+02
      2   0.203963D-03 -0.545157D-03  0.696253D+01
      3  -0.132758D+01  0.538753D+01 -0.130193D-02
        16        -0.0032      0.0013     -0.0005     -0.0008
 Total R(velocity) tensor for State=         16
                 1             2             3 
      1  -0.321190D-02  0.191328D-02  0.000000D+00
      2  -0.360450D-02  0.132653D-02  0.000000D+00
      3   0.169369D+02 -0.190568D+02 -0.458219D-03
        17        -0.0018      0.0014     -0.0032     -0.0012
 Total R(velocity) tensor for State=         17
                 1             2             3 
      1  -0.176278D-02 -0.530958D-03  0.000000D+00
      2  -0.143895D-02  0.140598D-02  0.000000D+00
      3  -0.264182D+02  0.180162D+02 -0.320837D-02
        18        -0.0535      0.0010     -0.0149     -0.0225
 Total R(velocity) tensor for State=         18
                 1             2             3 
      1  -0.535376D-01  0.370267D-01 -0.212725D-04
      2   0.393710D-02  0.993092D-03 -0.879304D-05
      3  -0.761796D+01  0.954170D+01 -0.149371D-01
        19         0.0616     -0.0061      0.0325      0.0293
 Total R(velocity) tensor for State=         19
                 1             2             3 
      1   0.615593D-01 -0.150193D-01 -0.588022D+02
      2   0.211484D-01 -0.605823D-02 -0.156468D+02
      3   0.539487D+02 -0.233285D+02  0.325293D-01
        20        -0.0084      0.0075     -0.0141     -0.0050
 Total R(velocity) tensor for State=         20
                 1             2             3 
      1  -0.836612D-02 -0.857233D-02 -0.163683D-04
      2  -0.260364D-01  0.746043D-02 -0.750953D-05
      3   0.248904D+00 -0.112231D+02 -0.141153D-01
 1/2[<0|r|b>*<b|rxdel|0> + (<0|rxdel|b>*<b|r|0>)*]
 Rotatory Strengths (R) in cgs (10**-40 erg-esu-cm/Gauss)
       state          XX          YY          ZZ     R(length)     R(au)
         1         0.0061     -0.0009      0.0032      0.0028      0.0000
         2         0.0008     -0.0110     -0.0207     -0.0103      0.0000
         3         0.0002      0.0114      0.0229      0.0115      0.0000
         4        -0.0015      0.0002     -0.0141     -0.0051      0.0000
         5         0.0016     -0.0029     -0.0011     -0.0008      0.0000
         6        -0.0003     -0.0006     -0.0008     -0.0006      0.0000
         7         0.0216     -0.0158      0.0206      0.0088      0.0000
         8        -0.0039      0.0178     -0.0379     -0.0080      0.0000
         9        -0.0016      0.0005      0.0016      0.0002      0.0000
        10         0.0006      0.0000     -0.0002      0.0001      0.0000
        11        -0.0017     -0.0046      0.0005     -0.0019      0.0000
        12         0.0029      0.0041     -0.0019      0.0017      0.0000
        13        -0.0015     -0.0021      0.0098      0.0021      0.0000
        14         0.0011      0.0038     -0.0101     -0.0017      0.0000
        15        -0.0012      0.0004     -0.0003     -0.0004      0.0000
        16         0.0041     -0.0042     -0.0024     -0.0009      0.0000
        17        -0.0024     -0.0064      0.0048     -0.0013      0.0000
        18         0.0155     -0.0815     -0.0007     -0.0222      0.0000
        19        -0.0112      0.0993     -0.0012      0.0290      0.0001
        20         0.0003     -0.0176      0.0025     -0.0049      0.0000
  1/2[<0|del|b>*<b|r|0> + (<0|r|b>*<b|del|0>)*] (Au)
       state          X           Y           Z        Dip. S.   Osc.(frdel)
         1         0.0000      0.0000     -0.0017      0.0017      0.0011
         2        -0.0005     -0.0057      0.0000      0.0062      0.0041
         3         0.0000      0.0000     -0.0223      0.0223      0.0149
         4        -0.4915     -0.0003      0.0000      0.4918      0.3279
         5        -0.0301     -0.2012      0.0000      0.2313      0.1542
         6         0.0000      0.0000     -0.0012      0.0012      0.0008
         7        -0.1494     -0.0190      0.0000      0.1684      0.1123
         8         0.0000      0.0000     -0.0549      0.0549      0.0366
         9         0.0000      0.0000     -0.0117      0.0117      0.0078
        10        -0.0072     -0.0008      0.0000      0.0080      0.0054
        11        -0.0045     -0.0050      0.0000      0.0095      0.0063
        12         0.0000      0.0000     -0.0109      0.0109      0.0072
        13        -0.0012     -0.0001      0.0000      0.0013      0.0009
        14         0.0000      0.0000     -0.0173      0.0173      0.0115
        15        -0.0101     -0.0009      0.0000      0.0110      0.0073
        16         0.0000      0.0000     -0.0021      0.0021      0.0014
        17         0.0000      0.0000     -0.0130      0.0130      0.0087
        18         0.0000      0.0000     -0.0033      0.0033      0.0022
        19        -0.0123     -0.0620      0.0000      0.0744      0.0496
        20         0.0000      0.0000     -0.0141      0.0141      0.0094
 Ground to excited state transition densities written to RWF  633

 Excitation energies and oscillator strengths:
 
 Excited state symmetry could not be determined.
 Excited State   1:      Singlet-?Sym    5.7585 eV  215.31 nm  f=0.0010  <S**2>=0.000
      12 -> 16         0.67201
      12 -> 17        -0.19817
 
 Excited state symmetry could not be determined.
 Excited State   2:      Singlet-?Sym    6.9828 eV  177.56 nm  f=0.0041  <S**2>=0.000
      11 -> 16         0.21060
      12 -> 13         0.58280
      12 -> 15         0.24535
      12 -> 18        -0.11639
      12 -> 20        -0.11128
 
 Excited state symmetry could not be determined.
 Excited State   3:      Singlet-?Sym    7.0555 eV  175.73 nm  f=0.0154  <S**2>=0.000
      11 -> 13         0.66495
      11 -> 14         0.10376
      11 -> 19        -0.13325
      11 -> 20        -0.13321
 
 Excited state symmetry could not be determined.
 Excited State   4:      Singlet-?Sym    7.2786 eV  170.34 nm  f=0.3332  <S**2>=0.000
      11 -> 16         0.55414
      11 -> 17        -0.24884
      12 -> 13        -0.12092
      12 -> 14         0.24545
      12 -> 15        -0.13901
      12 -> 18         0.10071
 
 Excited state symmetry could not be determined.
 Excited State   5:      Singlet-?Sym    7.6531 eV  162.01 nm  f=0.1562  <S**2>=0.000
      11 -> 16        -0.16103
      12 -> 14         0.58622
      12 -> 15         0.25123
      12 -> 18        -0.12116
      12 -> 19        -0.13061
      12 -> 21        -0.10057
 
 Excited state symmetry could not be determined.
 Excited State   6:      Singlet-?Sym    7.7885 eV  159.19 nm  f=0.0007  <S**2>=0.000
      11 -> 13        -0.10747
      11 -> 14         0.63831
      11 -> 15         0.18600
      11 -> 21        -0.15284
 This state for optimization and/or second-order correction.
 Copying the excited state density for this state as the 1-particle RhoCI density.
 
 Excited state symmetry could not be determined.
 Excited State   7:      Singlet-?Sym    7.9863 eV  155.25 nm  f=0.1134  <S**2>=0.000
      11 -> 16         0.13445
      12 -> 13        -0.34178
      12 -> 14        -0.17914
      12 -> 15         0.50236
      12 -> 18        -0.23171
 
 Excited state symmetry could not be determined.
 Excited State   8:      Singlet-?Sym    8.0390 eV  154.23 nm  f=0.0377  <S**2>=0.000
      11 -> 14        -0.17832
      11 -> 15         0.64039
      11 -> 18        -0.16359
      11 -> 23        -0.10793
 
 Excited state symmetry could not be determined.
 Excited State   9:      Singlet-?Sym    8.3858 eV  147.85 nm  f=0.0076  <S**2>=0.000
      12 -> 16         0.19331
      12 -> 17         0.66986
 
 Excited state symmetry could not be determined.
 Excited State  10:      Singlet-?Sym    8.6828 eV  142.79 nm  f=0.0064  <S**2>=0.000
      11 -> 16         0.28933
      11 -> 17         0.63523
 
 Excited state symmetry could not be determined.
 Excited State  11:      Singlet-?Sym    9.0330 eV  137.26 nm  f=0.0066  <S**2>=0.000
      12 -> 15         0.29463
      12 -> 18         0.61247
      12 -> 19         0.12520
 
 Excited state symmetry could not be determined.
 Excited State  12:      Singlet-?Sym    9.1128 eV  136.05 nm  f=0.0076  <S**2>=0.000
      11 -> 15         0.13499
      11 -> 18         0.65580
      11 -> 24         0.14675
 
 Excited state symmetry could not be determined.
 Excited State  13:      Singlet-?Sym    9.3222 eV  133.00 nm  f=0.0014  <S**2>=0.000
      12 -> 14         0.14982
      12 -> 18        -0.11067
      12 -> 19         0.64827
      12 -> 21        -0.10073
 
 Excited state symmetry could not be determined.
 Excited State  14:      Singlet-?Sym    9.3827 eV  132.14 nm  f=0.0115  <S**2>=0.000
      11 -> 13         0.11837
      11 -> 19         0.67057
 
 Excited state symmetry could not be determined.
 Excited State  15:      Singlet-?Sym    9.9732 eV  124.32 nm  f=0.0077  <S**2>=0.000
      12 -> 13         0.10389
      12 -> 14        -0.10627
      12 -> 20         0.57762
      12 -> 23         0.32350
      12 -> 24         0.10799
 
 Excited state symmetry could not be determined.
 Excited State  16:      Singlet-?Sym   10.1415 eV  122.25 nm  f=0.0014  <S**2>=0.000
       9 -> 16         0.64493
       9 -> 17        -0.18743
      11 -> 20         0.11274
      11 -> 23         0.12451
 
 Excited state symmetry could not be determined.
 Excited State  17:      Singlet-?Sym   10.2406 eV  121.07 nm  f=0.0082  <S**2>=0.000
       9 -> 16        -0.14596
      11 -> 13         0.14259
      11 -> 20         0.61702
      11 -> 21         0.16317
      11 -> 23         0.14752
 
 Excited state symmetry could not be determined.
 Excited State  18:      Singlet-?Sym   10.4822 eV  118.28 nm  f=0.0030  <S**2>=0.000
       9 -> 16        -0.10686
      11 -> 20        -0.15572
      11 -> 23         0.57145
      11 -> 24         0.24050
      11 -> 26        -0.13237
      12 -> 22         0.12950
 
 Excited state symmetry could not be determined.
 Excited State  19:      Singlet-?Sym   10.5065 eV  118.01 nm  f=0.0497  <S**2>=0.000
      11 -> 22        -0.20874
      12 -> 14         0.10823
      12 -> 20        -0.21045
      12 -> 21         0.39660
      12 -> 23         0.40132
      12 -> 24         0.21772
 
 Excited state symmetry could not be determined.
 Excited State  20:      Singlet-?Sym   10.5326 eV  117.72 nm  f=0.0096  <S**2>=0.000
      11 -> 14        -0.11893
      11 -> 20         0.12862
      11 -> 21        -0.34909
      11 -> 23        -0.10406
      12 -> 22         0.54700
      12 -> 25        -0.12297
 SavETr:  write IOETrn=   770 NScale= 10 NData=  16 NLR=1 LETran=     370.
 FoFJK:  IHMeth= 1 ICntrl=     0 DoSepK=T KAlg= 1 I1Cent= 0 FoldK=F
 FoFJK:  IHMeth= 1 ICntrl=     0 DoSepK=T KAlg= 1 I1Cent= 0 FoldK=F
          IDoAtm=111111
 NEqPCM:  Using equilibrium solvation (IEInf=0, Eps=  78.3553, EpsInf=   1.7778)
          Differentiating once with respect to electric field.
                with respect to dipole field.
          Differentiating once with respect to nuclear coordinates.
          There are     1 degrees of freedom in the 1st order CPHF.  IDoFFX=0.
 FoFJK:  IHMeth= 1 ICntrl=     0 DoSepK=T KAlg= 1 I1Cent= 0 FoldK=F
 LinEq1:  Iter=  0 NonCon=     1 RMS=2.70D-02 Max=2.70D-01
 AX will form     1 AO Fock derivatives at one time.
 FoFJK:  IHMeth= 1 ICntrl=     0 DoSepK=T KAlg= 1 I1Cent= 0 FoldK=F
 LinEq1:  Iter=  1 NonCon=     1 RMS=8.23D-03 Max=1.18D-01
 FoFJK:  IHMeth= 1 ICntrl=     0 DoSepK=T KAlg= 1 I1Cent= 0 FoldK=F
 LinEq1:  Iter=  2 NonCon=     1 RMS=4.93D-03 Max=4.00D-02
 FoFJK:  IHMeth= 1 ICntrl=     0 DoSepK=T KAlg= 1 I1Cent= 0 FoldK=F
 LinEq1:  Iter=  3 NonCon=     1 RMS=2.70D-03 Max=5.19D-02
 FoFJK:  IHMeth= 1 ICntrl=     0 DoSepK=T KAlg= 1 I1Cent= 0 FoldK=F
 LinEq1:  Iter=  4 NonCon=     1 RMS=1.10D-03 Max=1.13D-02
 FoFJK:  IHMeth= 1 ICntrl=     0 DoSepK=T KAlg= 1 I1Cent= 0 FoldK=F
 LinEq1:  Iter=  5 NonCon=     1 RMS=1.92D-04 Max=2.27D-03
 FoFJK:  IHMeth= 1 ICntrl=     0 DoSepK=T KAlg= 1 I1Cent= 0 FoldK=F
 LinEq1:  Iter=  6 NonCon=     1 RMS=3.37D-05 Max=2.83D-04
 FoFJK:  IHMeth= 1 ICntrl=     0 DoSepK=T KAlg= 1 I1Cent= 0 FoldK=F
 LinEq1:  Iter=  7 NonCon=     1 RMS=6.33D-06 Max=5.32D-05
 FoFJK:  IHMeth= 1 ICntrl=     0 DoSepK=T KAlg= 1 I1Cent= 0 FoldK=F
 LinEq1:  Iter=  8 NonCon=     1 RMS=1.23D-06 Max=1.21D-05
 FoFJK:  IHMeth= 1 ICntrl=     0 DoSepK=T KAlg= 1 I1Cent= 0 FoldK=F
 LinEq1:  Iter=  9 NonCon=     1 RMS=1.79D-07 Max=1.30D-06
 FoFJK:  IHMeth= 1 ICntrl=     0 DoSepK=T KAlg= 1 I1Cent= 0 FoldK=F
 LinEq1:  Iter= 10 NonCon=     1 RMS=3.76D-08 Max=3.29D-07
 FoFJK:  IHMeth= 1 ICntrl=     0 DoSepK=T KAlg= 1 I1Cent= 0 FoldK=F
 LinEq1:  Iter= 11 NonCon=     1 RMS=5.49D-09 Max=5.45D-08
 FoFJK:  IHMeth= 1 ICntrl=     0 DoSepK=T KAlg= 1 I1Cent= 0 FoldK=F
 LinEq1:  Iter= 12 NonCon=     1 RMS=1.01D-09 Max=6.57D-09
 FoFJK:  IHMeth= 1 ICntrl=     0 DoSepK=T KAlg= 1 I1Cent= 0 FoldK=F
 LinEq1:  Iter= 13 NonCon=     1 RMS=2.01D-10 Max=2.17D-09
 FoFJK:  IHMeth= 1 ICntrl=     0 DoSepK=T KAlg= 1 I1Cent= 0 FoldK=F
 LinEq1:  Iter= 14 NonCon=     0 RMS=2.57D-11 Max=1.93D-10
 Linear equations converged to 1.000D-10 1.000D-09 after    14 iterations.
 FoFJK:  IHMeth= 1 ICntrl=     0 DoSepK=T KAlg= 1 I1Cent= 0 FoldK=F
 End of Minotr Frequency-dependent properties file   721 does not exist.
 End of Minotr Frequency-dependent properties file   722 does not exist.

 **********************************************************************

            Population analysis using the SCF density.

 **********************************************************************

 Alpha  occ. eigenvalues --  -19.20592 -14.43921 -10.37654  -1.13251  -1.00140
 Alpha  occ. eigenvalues --   -0.70900  -0.63283  -0.56221  -0.49948  -0.49027
 Alpha  occ. eigenvalues --   -0.35108  -0.34314
 Alpha virt. eigenvalues --    0.01671   0.03328   0.04398   0.04944   0.07805
 Alpha virt. eigenvalues --    0.08200   0.09546   0.12744   0.14289   0.14951
 Alpha virt. eigenvalues --    0.15949   0.18128   0.20969   0.21113   0.21475
 Alpha virt. eigenvalues --    0.26157   0.27057   0.27879   0.29166   0.35807
 Alpha virt. eigenvalues --    0.35958   0.36487   0.39837   0.44236   0.45521
 Alpha virt. eigenvalues --    0.48141   0.49435   0.51473   0.54114   0.54574
 Alpha virt. eigenvalues --    0.55022   0.57584   0.58384   0.60579   0.66859
 Alpha virt. eigenvalues --    0.68992   0.72108   0.75272   0.80440   0.83460
 Alpha virt. eigenvalues --    0.86149   0.87232   0.91455   1.05604   1.07186
 Alpha virt. eigenvalues --    1.08786   1.12408   1.18207   1.22635   1.26539
 Alpha virt. eigenvalues --    1.30111   1.34930   1.42877   1.49236   1.49240
 Alpha virt. eigenvalues --    1.66239   1.69918   1.71600   1.76712   1.80636
 Alpha virt. eigenvalues --    1.83629   1.87524   2.00351   2.03408   2.05066
 Alpha virt. eigenvalues --    2.10199   2.14980   2.22047   2.22796   2.28727
 Alpha virt. eigenvalues --    2.46313   2.51524   2.55134   2.66073   2.69134
 Alpha virt. eigenvalues --    2.86876   3.02817   3.17882   3.31104   3.40263
 Alpha virt. eigenvalues --    3.45509   3.46312   3.71927   3.77736
          Condensed to atoms (all electrons):
              1          2          3          4          5          6
     1  C    4.808898   0.335984   0.326708  -0.192686  -0.131091   0.034611
     2  N    0.335984   5.856118  -0.065821   0.390049   0.349243  -0.027194
     3  O    0.326708  -0.065821   8.386466   0.001783  -0.002294  -0.092568
     4  H   -0.192686   0.390049   0.001783   1.048857  -0.216210   0.057068
     5  H   -0.131091   0.349243  -0.002294  -0.216210   1.054479  -0.010156
     6  H    0.034611  -0.027194  -0.092568   0.057068  -0.010156   1.330329
 Mulliken atomic charges:
              1
     1  C    0.817577
     2  N    0.161620
     3  O   -0.554274
     4  H   -0.088860
     5  H   -0.043972
     6  H   -0.292090
 Sum of Mulliken atomic charges =   0.00000
 Mulliken charges with hydrogens summed into heavy atoms:
              1
     1  C    0.525486
     2  N    0.028788
     3  O   -0.554274
 Sum of Mulliken charges with hydrogens summed into heavy atoms =   0.00000
 Electronic spatial extent (au):  <R**2>=            146.9405
 Charge=              0.0000 electrons
 Dipole moment (field-independent basis, Debye):
    X=              5.1238    Y=              1.2632    Z=              0.0005  Tot=              5.2772
 Quadrupole moment (field-independent basis, Debye-Ang):
   XX=            -18.5724   YY=            -15.2274   ZZ=            -19.2154
   XY=             -1.5257   XZ=              0.0002   YZ=             -0.0001
 Traceless Quadrupole moment (field-independent basis, Debye-Ang):
   XX=             -0.9007   YY=              2.4444   ZZ=             -1.5436
   XY=             -1.5257   XZ=              0.0002   YZ=             -0.0001
 Octapole moment (field-independent basis, Debye-Ang**2):
  XXX=             17.6895  YYY=             -0.6427  ZZZ=              0.0000  XYY=              3.9508
  XXY=              1.2891  XXZ=              0.0016  XZZ=             -0.7030  YZZ=              0.0247
  YYZ=              0.0003  XYZ=              0.0001
 Hexadecapole moment (field-independent basis, Debye-Ang**3):
 XXXX=           -115.0901 YYYY=            -33.8700 ZZZZ=            -19.6085 XXXY=              1.9779
 XXXZ=             -0.0015 YYYX=             -4.5769 YYYZ=             -0.0004 ZZZX=             -0.0036
 ZZZY=              0.0000 XXYY=            -24.0874 XXZZ=            -26.3725 YYZZ=            -10.2570
 XXYZ=              0.0002 YYXZ=             -0.0008 ZZXY=             -0.0017
 N-N= 7.116952588400D+01 E-N=-5.404459692202D+02  KE= 1.687833827230D+02
 D1PCM: PCM CHGder 1st derivatives, ID1Alg=3 FixD1E=F DoIter=F DoCFld=F I1PDM=6.
 Calling FoFJK, ICntrl=      5127 FMM=F ISym2X=0 I1Cent= 0 IOpClX= 0 NMat=1 NMatS=1 NMatT=0.
 FoFJK:  IHMeth= 1 ICntrl=  5127 DoSepK=T KAlg= 1 I1Cent= 0 FoldK=F
 -------------------------------------------------------------------
 Center     Atomic                   Forces (Hartrees/Bohr)
 Number     Number              X              Y              Z
 -------------------------------------------------------------------
      1        6          -0.003769111    0.017404119   -0.000000670
      2        7          -0.022828176   -0.000588791    0.000004252
      3        8           0.012146167   -0.011813796    0.000000012
      4        1           0.005538091   -0.028369997   -0.000001641
      5        1           0.010603301    0.010051103   -0.000001520
      6        1          -0.001690272    0.013317361   -0.000000433
 -------------------------------------------------------------------
 Cartesian Forces:  Max     0.028369997 RMS     0.011437919

 GradGradGradGradGradGradGradGradGradGradGradGradGradGradGradGradGradGrad
 Berny optimization.
 Internal  Forces:  Max     0.028799680 RMS     0.012504047
 Search for a local minimum.
 Step number   1 out of a maximum of  100
 All quantities printed in internal units (Hartrees-Bohrs-Radians)
 Mixed Optimization -- RFO/linear search
 Second derivative matrix not updated -- first step.
 The second derivative matrix:
                          R1        R2        R3        R4        R5
           R1           0.56693
           R2           0.00000   0.92361
           R3           0.00000   0.00000   0.33098
           R4           0.00000   0.00000   0.00000   0.45754
           R5           0.00000   0.00000   0.00000   0.00000   0.46145
           A1           0.00000   0.00000   0.00000   0.00000   0.00000
           A2           0.00000   0.00000   0.00000   0.00000   0.00000
           A3           0.00000   0.00000   0.00000   0.00000   0.00000
           A4           0.00000   0.00000   0.00000   0.00000   0.00000
           A5           0.00000   0.00000   0.00000   0.00000   0.00000
           A6           0.00000   0.00000   0.00000   0.00000   0.00000
           D1           0.00000   0.00000   0.00000   0.00000   0.00000
           D2           0.00000   0.00000   0.00000   0.00000   0.00000
           D3           0.00000   0.00000   0.00000   0.00000   0.00000
           D4           0.00000   0.00000   0.00000   0.00000   0.00000
                          A1        A2        A3        A4        A5
           A1           0.25000
           A2           0.00000   0.16000
           A3           0.00000   0.00000   0.16000
           A4           0.00000   0.00000   0.00000   0.16000
           A5           0.00000   0.00000   0.00000   0.00000   0.16000
           A6           0.00000   0.00000   0.00000   0.00000   0.00000
           D1           0.00000   0.00000   0.00000   0.00000   0.00000
           D2           0.00000   0.00000   0.00000   0.00000   0.00000
           D3           0.00000   0.00000   0.00000   0.00000   0.00000
           D4           0.00000   0.00000   0.00000   0.00000   0.00000
                          A6        D1        D2        D3        D4
           A6           0.16000
           D1           0.00000   0.02455
           D2           0.00000   0.00000   0.02455
           D3           0.00000   0.00000   0.00000   0.02455
           D4           0.00000   0.00000   0.00000   0.00000   0.02455
     Eigenvalues ---    0.02455   0.02455   0.02455   0.16000   0.16000
     Eigenvalues ---    0.16000   0.22000   0.33098   0.45754   0.46145
     Eigenvalues ---    0.56693   0.923611000.000001000.000001000.00000
 RFO step:  Lambda=-7.71919667D-03 EMin= 2.45504600D-02
 Linear search not attempted -- first point.
 Iteration  1 RMS(Cart)=  0.05708935 RMS(Int)=  0.00198866
 Iteration  2 RMS(Cart)=  0.00208255 RMS(Int)=  0.00000043
 Iteration  3 RMS(Cart)=  0.00000063 RMS(Int)=  0.00000000
 Variable       Old X    -DE/DX   Delta X   Delta X   Delta X     New X
                                 (Linear)    (Quad)   (Total)
    R1        2.53658   0.00165   0.00000   0.00288   0.00288   2.53946
    R2        2.31863  -0.00430   0.00000  -0.00462  -0.00462   2.31401
    R3        2.08880   0.01330   0.00000   0.03926   0.03926   2.12807
    R4        1.91109   0.02880   0.00000   0.06190   0.06190   1.97299
    R5        1.90668   0.01444   0.00000   0.03079   0.03079   1.93747
    A1        2.17634  -0.02660   0.00000  -0.11683  -0.11683   2.05950
    A2        1.97993   0.01524   0.00000   0.06997   0.06997   2.04990
    A3        2.12692   0.01136   0.00000   0.04686   0.04686   2.17378
    A4        2.09837   0.00458   0.00000   0.02730   0.02730   2.12567
    A5        2.10930  -0.00434   0.00000  -0.02590  -0.02590   2.08340
    A6        2.07552  -0.00024   0.00000  -0.00140  -0.00140   2.07412
    D1       -0.00004   0.00000   0.00000   0.00005   0.00005   0.00001
    D2       -3.14155   0.00000   0.00000  -0.00009  -0.00009   3.14155
    D3        3.14156   0.00000   0.00000   0.00008   0.00008  -3.14154
    D4        0.00005   0.00000   0.00000  -0.00006  -0.00006   0.00000
         Item               Value     Threshold  Converged?
 Maximum Force            0.028800     0.000450     NO 
 RMS     Force            0.012504     0.000300     NO 
 Maximum Displacement     0.114295     0.001800     NO 
 RMS     Displacement     0.057603     0.001200     NO 
 Predicted change in Energy=-3.969639D-03
 GradGradGradGradGradGradGradGradGradGradGradGradGradGradGradGradGradGrad

                          Input orientation:                          
 ---------------------------------------------------------------------
 Center     Atomic      Atomic             Coordinates (Angstroms)
 Number     Number       Type             X           Y           Z
 ---------------------------------------------------------------------
      1          6           0       -0.143903    0.427670    0.000008
      2          7           0        1.060649   -0.168076    0.000096
      3          8           0       -1.138529   -0.286597   -0.000084
      4          1           0        1.160276   -1.207375    0.000077
      5          1           0        1.907480    0.409891    0.000135
      6          1           0       -0.166203    1.553573   -0.000015
 ---------------------------------------------------------------------
                    Distance matrix (angstroms):
                    1          2          3          4          5
     1  C    0.000000
     2  N    1.343822   0.000000
     3  O    1.224524   2.202369   0.000000
     4  H    2.091472   1.044064   2.476356   0.000000
     5  H    2.051460   1.025265   3.124622   1.781534   0.000000
     6  H    1.126124   2.114058   2.081260   3.063068   2.368157
                    6
     6  H    0.000000
 Symmetry turned off by external request.
 Stoichiometry    CH3NO
 Framework group  C1[X(CH3NO)]
 Deg. of freedom    12
 Full point group                 C1      NOp   1
 Rotational constants (GHZ):     63.8242013     12.1148967     10.1821542
 Standard basis: Aug-CC-pVDZ (5D, 7F)
 Integral buffers will be    131072 words long.
 Raffenetti 2 integral format.
 Two-electron integral symmetry is turned off.
    96 basis functions,   162 primitive gaussians,   102 cartesian basis functions
    12 alpha electrons       12 beta electrons
       nuclear repulsion energy        71.3276635318 Hartrees.
 NAtoms=    6 NActive=    6 NUniq=    6 SFac= 7.50D-01 NAtFMM=   80 NAOKFM=F Big=F
 Standard density basis: Auto (5D, 7F)
   327 Density fitting functions
 ------------------------------------------------------------------------------
 Polarizable Continuum Model (PCM)
 =================================
 Model                : PCM.
 Atomic radii         : UFF (Universal Force Field).
 Polarization charges : Total charges.
 Charge compensation  : None.
 Solution method      : Matrix inversion.
 Cavity type          : Scaled VdW (van der Waals Surface) (Alpha=1.100).
 Cavity algorithm     : GePol (No added spheres)
                        Default sphere list used, NSphG=    6.
                        Lebedev-Laikov grids with approx.  5.0 points / Ang**2.
                        Smoothing algorithm: Karplus/York (Gamma=1.0000).
                        Polarization charges: spherical gaussians, with
                                              point-specific exponents (IZeta= 3).
                        Self-potential: point-specific (ISelfS= 7).
                        Self-field    : sphere-specific E.n sum rule (ISelfD= 2).
 1st derivatives      : Analytical E(r).r(x)/FMM algorithm (CHGder, D1EAlg=3).
                        Cavity 1st derivative terms included.
 Solvent              : Water, Eps=  78.355300 Eps(inf)=   1.777849
 ------------------------------------------------------------------------------
 Spheres list:
 ISph  on   Nord    Re0     Alpha      Xe            Ye            Ze
    1   C      1    1.926   1.100     -0.143903      0.427670      0.000008
    2   N      2    1.830   1.100      1.060649     -0.168076      0.000096
    3   O      3    1.750   1.100     -1.138529     -0.286597     -0.000084
    4   H      4    1.443   1.100      1.160276     -1.207375      0.000077
    5   H      5    1.443   1.100      1.907480      0.409891      0.000135
    6   H      6    1.443   1.100     -0.166203      1.553573     -0.000015
 ------------------------------------------------------------------------------
 One-electron integrals computed using PRISM.
 NBasis=    96 RedAO= T  NBF=    96
 NBsUse=    96 1.00D-06 NBFU=    96
 Initial guess read from the read-write file.
 B after Tr=     0.000000    0.000000    0.000000
         Rot=    1.000000    0.000000    0.000000    0.000000 Ang=   0.00 deg.
 Harris functional with IExCor=20419 diagonalized for initial guess.
 ExpMin= 2.97D-02 ExpMax= 1.17D+04 ExpMxC= 4.01D+02 IAcc=3 IRadAn=         5 AccDes= 0.00D+00
 HarFok:  IExCor=20419 AccDes= 0.00D+00 IRadAn=         5 IDoV= 1
 ScaDFX=  1.000000  1.000000  1.000000  1.000000
 FoFCou: FMM=F IPFlag=           0 FMFlag=      100000 FMFlg1=           0
         NFxFlg=           0 DoJE=T BraDBF=F KetDBF=T FulRan=T
         Omega=  0.000000  0.000000  1.000000  0.000000  0.000000 ICntrl=     500 IOpCl=  0
         NMat0=    1 NMatS0=    1 NMatT0=    0 NMatD0=    1 NMtDS0=    0 NMtDT0=    0
         I1Cent=           4 NGrid=           0.
 Symmetry not used in FoFCou.
 Requested convergence on RMS density matrix=1.00D-08 within 128 cycles.
 Requested convergence on MAX density matrix=1.00D-06.
 Requested convergence on             energy=1.00D-06.
 No special actions if energy rises.
 FoFJK:  IHMeth= 1 ICntrl=     0 DoSepK=T KAlg= 1 I1Cent= 0 FoldK=F
 FoFJK:  IHMeth= 1 ICntrl=     0 DoSepK=T KAlg= 1 I1Cent= 0 FoldK=F
 FoFJK:  IHMeth= 1 ICntrl=     0 DoSepK=T KAlg= 1 I1Cent= 0 FoldK=F
 FoFJK:  IHMeth= 1 ICntrl=     0 DoSepK=T KAlg= 1 I1Cent= 0 FoldK=F
 FoFJK:  IHMeth= 1 ICntrl=     0 DoSepK=T KAlg= 1 I1Cent= 0 FoldK=F
 FoFJK:  IHMeth= 1 ICntrl=     0 DoSepK=T KAlg= 1 I1Cent= 0 FoldK=F
 FoFJK:  IHMeth= 1 ICntrl=     0 DoSepK=T KAlg= 1 I1Cent= 0 FoldK=F
 FoFJK:  IHMeth= 1 ICntrl=     0 DoSepK=T KAlg= 1 I1Cent= 0 FoldK=F
 FoFJK:  IHMeth= 1 ICntrl=     0 DoSepK=T KAlg= 1 I1Cent= 0 FoldK=F
 FoFJK:  IHMeth= 1 ICntrl=     0 DoSepK=T KAlg= 1 I1Cent= 0 FoldK=F
 Error on total polarization charges =  0.01068
 SCF Done:  E(RCAM-B3LYP) =  -169.859692896     A.U. after   10 cycles
             Convg  =    0.9003D-08             -V/T =  2.0068
 ExpMin= 2.97D-02 ExpMax= 1.17D+04 ExpMxC= 4.01D+02 IAcc=3 IRadAn=         5 AccDes= 0.00D+00
 HarFok:  IExCor=  205 AccDes= 0.00D+00 IRadAn=         5 IDoV=-2
 ScaDFX=  1.000000  1.000000  1.000000  1.000000
 Range of M.O.s used for correlation:     4    96
 NBasis=    96 NAE=    12 NBE=    12 NFC=     3 NFV=     0
 NROrb=     93 NOA=     9 NOB=     9 NVA=    84 NVB=    84

 **** Warning!!: The largest alpha MO coefficient is  0.19143682D+02

 NEqPCM:  Using equilibrium solvation (IEInf=0, Eps=  78.3553, EpsInf=   1.7778)
 Generating guess from densities on rwf.
 Convergence on wavefunction:    0.000001000000000
 Iteration     1 Dimension    40 NMult    40
 CISAX will form    40 AO SS matrices at one time.
 FoFJK:  IHMeth= 1 ICntrl=     0 DoSepK=T KAlg= 1 I1Cent= 0 FoldK=F
 FoFJK:  IHMeth= 1 ICntrl=     0 DoSepK=T KAlg= 1 I1Cent= 0 FoldK=F
 New state      2 was old state      3
 New state      3 was old state      2
 New state      5 was old state      6
 New state      6 was old state      5
 New state      7 was old state      8
 New state      8 was old state      7
 New state     11 was old state     12
 New state     12 was old state     11
 New state     13 was old state     14
 New state     14 was old state     13
 New state     15 was old state     16
 New state     16 was old state     15
 Iteration     2 Dimension    80 NMult    80
 FoFJK:  IHMeth= 1 ICntrl=     0 DoSepK=T KAlg= 1 I1Cent= 0 FoldK=F
 FoFJK:  IHMeth= 1 ICntrl=     0 DoSepK=T KAlg= 1 I1Cent= 0 FoldK=F
 New state      5 was old state      6
 New state      6 was old state      5
 New state     15 was old state     16
 New state     16 was old state     15
 New state     19 was old state     20
 New state     20 was old state     19
 Iteration     3 Dimension   120 NMult   120
 FoFJK:  IHMeth= 1 ICntrl=     0 DoSepK=T KAlg= 1 I1Cent= 0 FoldK=F
 FoFJK:  IHMeth= 1 ICntrl=     0 DoSepK=T KAlg= 1 I1Cent= 0 FoldK=F
 Iteration     4 Dimension   160 NMult   160
 FoFJK:  IHMeth= 1 ICntrl=     0 DoSepK=T KAlg= 1 I1Cent= 0 FoldK=F
 FoFJK:  IHMeth= 1 ICntrl=     0 DoSepK=T KAlg= 1 I1Cent= 0 FoldK=F
 Iteration     5 Dimension   200 NMult   200
 FoFJK:  IHMeth= 1 ICntrl=     0 DoSepK=T KAlg= 1 I1Cent= 0 FoldK=F
 FoFJK:  IHMeth= 1 ICntrl=     0 DoSepK=T KAlg= 1 I1Cent= 0 FoldK=F
 Iteration     6 Dimension   240 NMult   240
 FoFJK:  IHMeth= 1 ICntrl=     0 DoSepK=T KAlg= 1 I1Cent= 0 FoldK=F
 FoFJK:  IHMeth= 1 ICntrl=     0 DoSepK=T KAlg= 1 I1Cent= 0 FoldK=F
 Iteration     7 Dimension   272 NMult   272
 FoFJK:  IHMeth= 1 ICntrl=     0 DoSepK=T KAlg= 1 I1Cent= 0 FoldK=F
 FoFJK:  IHMeth= 1 ICntrl=     0 DoSepK=T KAlg= 1 I1Cent= 0 FoldK=F
 Iteration     8 Dimension   286 NMult   286
 FoFJK:  IHMeth= 1 ICntrl=     0 DoSepK=T KAlg= 1 I1Cent= 0 FoldK=F
 FoFJK:  IHMeth= 1 ICntrl=     0 DoSepK=T KAlg= 1 I1Cent= 0 FoldK=F
 Iteration     9 Dimension   294 NMult   294
 FoFJK:  IHMeth= 1 ICntrl=     0 DoSepK=T KAlg= 1 I1Cent= 0 FoldK=F
 FoFJK:  IHMeth= 1 ICntrl=     0 DoSepK=T KAlg= 1 I1Cent= 0 FoldK=F
 Iteration    10 Dimension   298 NMult   298
 FoFJK:  IHMeth= 1 ICntrl=     0 DoSepK=T KAlg= 1 I1Cent= 0 FoldK=F
 FoFJK:  IHMeth= 1 ICntrl=     0 DoSepK=T KAlg= 1 I1Cent= 0 FoldK=F
 Iteration    11 Dimension   300 NMult   300
 FoFJK:  IHMeth= 1 ICntrl=     0 DoSepK=T KAlg= 1 I1Cent= 0 FoldK=F
 FoFJK:  IHMeth= 1 ICntrl=     0 DoSepK=T KAlg= 1 I1Cent= 0 FoldK=F
 Iteration    12 Dimension   302 NMult   302
 FoFJK:  IHMeth= 1 ICntrl=     0 DoSepK=T KAlg= 1 I1Cent= 0 FoldK=F
 FoFJK:  IHMeth= 1 ICntrl=     0 DoSepK=T KAlg= 1 I1Cent= 0 FoldK=F
 ***********************************************************************
 Excited states from <AA,BB:AA,BB> singles matrix:
 ***********************************************************************
 
 Ground to excited state transition electric dipole moments (Au):
       state          X           Y           Z        Dip. S.      Osc.
         1         0.0000      0.0000      0.0772      0.0060      0.0008
         2        -0.0003     -0.0001      0.3175      0.1008      0.0170
         3         0.5223      0.0947      0.0002      0.2817      0.0478
         4         1.2646     -0.0687      0.0001      1.6040      0.2785
         5        -0.2797      0.7938      0.0000      0.7083      0.1308
         6        -0.0001      0.0005      0.0378      0.0014      0.0003
         7        -0.0002     -0.0001     -0.4102      0.1682      0.0325
         8         0.6410      0.3522     -0.0001      0.5348      0.1040
         9         0.0000      0.0000      0.1649      0.0272      0.0056
        10        -0.1980     -0.0593      0.0000      0.0427      0.0089
        11        -0.0001      0.0001      0.1436      0.0206      0.0045
        12         0.1682     -0.1297      0.0001      0.0451      0.0099
        13         0.0001      0.0000     -0.2231      0.0498      0.0112
        14        -0.1330     -0.0176     -0.0001      0.0180      0.0041
        15         0.0888      0.0219      0.0001      0.0084      0.0020
        16         0.0000      0.0000     -0.1120      0.0126      0.0031
        17         0.0000      0.0000     -0.1358      0.0184      0.0046
        18         0.0001      0.0000     -0.2082      0.0434      0.0109
        19         0.0000     -0.0001     -0.0681      0.0046      0.0012
        20        -0.0934     -0.4031      0.0000      0.1712      0.0434
 Ground to excited state transition velocity dipole moments (Au):
       state          X           Y           Z        Dip. S.      Osc.
         1         0.0000      0.0000     -0.0196      0.0004      0.0012
         2         0.0001      0.0000     -0.0778      0.0061      0.0160
         3        -0.1293     -0.0246     -0.0001      0.0173      0.0454
         4        -0.3253      0.0188      0.0000      0.1062      0.2719
         5         0.0780     -0.2170      0.0000      0.0532      0.1280
         6         0.0000     -0.0001     -0.0117      0.0001      0.0003
         7         0.0000      0.0000      0.1153      0.0133      0.0306
         8        -0.1857     -0.1014      0.0000      0.0448      0.1024
         9         0.0000      0.0000     -0.0516      0.0027      0.0058
        10         0.0526      0.0163      0.0000      0.0030      0.0065
        11         0.0000      0.0000     -0.0453      0.0021      0.0042
        12        -0.0521      0.0409      0.0000      0.0044      0.0089
        13         0.0000      0.0000      0.0757      0.0057      0.0113
        14         0.0358      0.0035      0.0000      0.0013      0.0025
        15        -0.0325     -0.0002      0.0000      0.0011      0.0019
        16         0.0000      0.0000      0.0414      0.0017      0.0031
        17         0.0000      0.0000      0.0563      0.0032      0.0057
        18         0.0000      0.0000      0.0652      0.0043      0.0075
        19         0.0000      0.0000      0.0237      0.0006      0.0010
        20         0.0330      0.1525      0.0000      0.0243      0.0427
 Ground to excited state transition magnetic dipole moments (Au):
       state          X           Y           Z
         1        -0.9084     -0.4592     -0.0001
         2         0.0178      0.5400     -0.0004
         3        -0.0001      0.0003      0.6352
         4         0.0000      0.0000      0.0743
         5         0.0000      0.0000     -0.1802
         6         0.0527     -0.0439     -0.0001
         7        -0.0460      0.3446     -0.0001
         8         0.0000      0.0001      0.4541
         9        -0.0766      0.1378      0.0000
        10         0.0000      0.0000      0.0771
        11         0.1100     -0.3065      0.0000
        12         0.0001     -0.0001     -0.0127
        13        -0.0808     -0.5481     -0.0001
        14         0.0000     -0.0002      0.2099
        15         0.0001      0.0000     -0.3620
        16        -0.9946      0.7320     -0.0001
        17         0.2964     -0.6083      0.0000
        18         0.3273     -0.6505      0.0000
        19         0.0297     -0.1728      0.0000
        20         0.0000      0.0000      0.0950
 <0|del|b> * <b|rxdel|0> + <0|del|b> * <b|delr+rdel|0>
 Rotatory Strengths (R) in cgs (10**-40 erg-esu-cm/Gauss)
       state          XX          YY          ZZ    R(velocity)
         1         0.0003     -0.0045     -0.0078     -0.0040
 Total R(velocity) tensor for State=          1
                 1             2             3 
      1   0.315004D-03  0.337841D-02  0.000000D+00
      2   0.525467D-02 -0.452987D-02  0.000000D+00
      3  -0.254684D+02 -0.145697D+02 -0.782947D-02
         2         0.0789      0.0255      0.0011      0.0352
 Total R(velocity) tensor for State=          2
                 1             2             3 
      1   0.789099D-01 -0.955363D-01  0.657440D-04
      2   0.190134D-01  0.255340D-01  0.247917D-04
      3  -0.657791D+00  0.993466D+01  0.113656D-02
         3        -0.0971     -0.0203      0.0177     -0.0332
 Total R(velocity) tensor for State=          3
                 1             2             3 
      1  -0.970894D-01  0.911685D-01  0.175319D+03
      2  -0.272455D-01 -0.203050D-01  0.683853D+02
      3   0.115616D+01 -0.607899D+01  0.177101D-01
         4        -0.0060      0.0042      0.0089      0.0024
 Total R(velocity) tensor for State=          4
                 1             2             3 
      1  -0.598353D-02  0.289728D-02  0.727862D+02
      2   0.102420D-01  0.417932D-02 -0.118336D+03
      3   0.202866D+01  0.350860D+02  0.889870D-02
         5        -0.0190     -0.0101      0.0058     -0.0078
 Total R(velocity) tensor for State=          5
                 1             2             3 
      1  -0.190211D-01 -0.870160D-02 -0.307650D+02
      2  -0.305408D-01 -0.101324D-01  0.138766D+02
      3   0.167697D+02  0.602592D+01  0.582280D-02
         6         0.0210      0.0070     -0.0053      0.0076
 Total R(velocity) tensor for State=          6
                 1             2             3 
      1   0.210470D-01  0.690977D-02 -0.157033D-04
      2   0.279951D-01  0.703194D-02  0.375370D-05
      3  -0.685266D+00  0.288063D+00 -0.534433D-02
         7        -0.0057     -0.0170      0.0050     -0.0059
 Total R(velocity) tensor for State=          7
                 1             2             3 
      1  -0.574841D-02 -0.484717D-01  0.135573D-04
      2   0.822004D-02 -0.169982D-01  0.000000D+00
      3   0.642009D+01 -0.314590D+02  0.499606D-02
         8        -0.0040      0.0175      0.0099      0.0078
 Total R(velocity) tensor for State=          8
                 1             2             3 
      1  -0.402095D-02  0.448480D-01  0.184264D+03
      2  -0.863737D-02  0.174777D-01  0.818009D+01
      3  -0.839047D+01  0.153615D+02  0.988292D-02
         9         0.0002      0.0004      0.0003      0.0003
 Total R(velocity) tensor for State=          9
                 1             2             3 
      1   0.243536D-03  0.297274D-02  0.000000D+00
      2   0.702004D-04  0.408231D-03  0.000000D+00
      3  -0.331574D+01 -0.384131D+00  0.336450D-03
        10         0.0011     -0.0009     -0.0019     -0.0006
 Total R(velocity) tensor for State=         10
                 1             2             3 
      1   0.113425D-02 -0.164852D-02 -0.115482D+02
      2   0.379878D-03 -0.914451D-03 -0.179301D+01
      3  -0.324490D+01  0.104861D+02 -0.194902D-02
        11         0.0071      0.0105      0.0004      0.0060
 Total R(velocity) tensor for State=         11
                 1             2             3 
      1   0.709798D-02  0.196080D-01 -0.274292D-05
      2   0.134802D-01  0.105077D-01  0.478559D-05
      3   0.673942D+00  0.444854D-01  0.419047D-03
        12        -0.0037     -0.0104     -0.0017     -0.0053
 Total R(velocity) tensor for State=         12
                 1             2             3 
      1  -0.372968D-02 -0.165687D-01 -0.206951D+02
      2  -0.157741D-01 -0.104375D-01  0.169163D+02
      3   0.118994D+01  0.151603D+01 -0.173644D-02
        13        -0.0074     -0.0069      0.0040     -0.0034
 Total R(velocity) tensor for State=         13
                 1             2             3 
      1  -0.739082D-02 -0.125220D-01 -0.175742D-05
      2   0.398820D-02 -0.694636D-02  0.000000D+00
      3   0.168855D+02  0.358197D+02  0.399197D-02
        14         0.0039      0.0066     -0.0036      0.0023
 Total R(velocity) tensor for State=         14
                 1             2             3 
      1   0.388128D-02  0.923178D-02 -0.675524D+01
      2  -0.362780D-02  0.659505D-02  0.418850D+01
      3   0.454139D+00 -0.458096D+01 -0.363980D-02
        15         0.0044      0.0024     -0.0019      0.0016
 Total R(velocity) tensor for State=         15
                 1             2             3 
      1   0.439068D-02  0.224349D-02 -0.744057D+01
      2  -0.487584D-02  0.235252D-02  0.821478D+01
      3  -0.178880D-01  0.305293D+01 -0.188258D-02
        16        -0.0052     -0.0070     -0.0009     -0.0044
 Total R(velocity) tensor for State=         16
                 1             2             3 
      1  -0.522659D-02 -0.177621D-02  0.000000D+00
      2  -0.116368D-02 -0.697779D-02  0.000000D+00
      3   0.242462D+02 -0.266849D+02 -0.923395D-03
        17         0.0050     -0.0015      0.0026      0.0020
 Total R(velocity) tensor for State=         17
                 1             2             3 
      1   0.498569D-02  0.442981D-02  0.000000D+00
      2   0.250726D-02 -0.153214D-02  0.000000D+00
      3  -0.212911D+02  0.134095D+02  0.257665D-02
        18         0.0142     -0.0064     -0.0020      0.0019
 Total R(velocity) tensor for State=         18
                 1             2             3 
      1   0.141719D-01 -0.217450D-01  0.000000D+00
      2   0.107732D-02 -0.638169D-02 -0.130238D-05
      3  -0.228451D+02  0.247084D+02 -0.195522D-02
        19        -0.0074     -0.0006     -0.0032     -0.0037
 Total R(velocity) tensor for State=         19
                 1             2             3 
      1  -0.741119D-02  0.107701D-02 -0.243572D-05
      2   0.102851D-02 -0.561385D-03  0.000000D+00
      3   0.203795D+00  0.211037D+01 -0.323604D-02
        20        -0.0051      0.0000     -0.0026     -0.0026
 Total R(velocity) tensor for State=         20
                 1             2             3 
      1  -0.514208D-02  0.946142D-03 -0.524707D+02
      2  -0.179970D-03 -0.120110D-04 -0.159743D+02
      3   0.461188D+02 -0.998793D+01 -0.264450D-02
 1/2[<0|r|b>*<b|rxdel|0> + (<0|rxdel|b>*<b|r|0>)*]
 Rotatory Strengths (R) in cgs (10**-40 erg-esu-cm/Gauss)
       state          XX          YY          ZZ     R(length)     R(au)
         1        -0.0129     -0.0046      0.0049     -0.0042      0.0000
         2         0.0042      0.0213      0.0824      0.0360      0.0001
         3         0.0255     -0.0203     -0.1070     -0.0339     -0.0001
         4         0.0130     -0.0002     -0.0057      0.0024      0.0000
         5        -0.0040     -0.0135     -0.0057     -0.0077      0.0000
         6         0.0046      0.0151      0.0028      0.0075      0.0000
         7        -0.0049      0.0231     -0.0368     -0.0062      0.0000
         8         0.0215     -0.0210      0.0236      0.0080      0.0000
         9         0.0011     -0.0010      0.0010      0.0004      0.0000
        10        -0.0030      0.0003      0.0007     -0.0007      0.0000
        11         0.0074      0.0116     -0.0002      0.0063      0.0000
        12        -0.0065     -0.0109      0.0007     -0.0056      0.0000
        13         0.0036      0.0008     -0.0131     -0.0029      0.0000
        14        -0.0037     -0.0022      0.0115      0.0019      0.0000
        15        -0.0086      0.0002      0.0134      0.0017      0.0000
        16         0.0010     -0.0041     -0.0113     -0.0048      0.0000
        17         0.0017      0.0084     -0.0027      0.0025      0.0000
        18        -0.0156      0.0219     -0.0005      0.0019      0.0000
        19        -0.0001     -0.0118      0.0008     -0.0037      0.0000
        20         0.0005     -0.0082      0.0000     -0.0026      0.0000
  1/2[<0|del|b>*<b|r|0> + (<0|r|b>*<b|del|0>)*] (Au)
       state          X           Y           Z        Dip. S.   Osc.(frdel)
         1         0.0000      0.0000     -0.0015      0.0015      0.0010
         2         0.0000      0.0000     -0.0247      0.0247      0.0165
         3        -0.0676     -0.0023      0.0000      0.0699      0.0466
         4        -0.4114     -0.0013      0.0000      0.4127      0.2751
         5        -0.0218     -0.1723      0.0000      0.1941      0.1294
         6         0.0000      0.0000     -0.0004      0.0004      0.0003
         7         0.0000      0.0000     -0.0473      0.0473      0.0315
         8        -0.1190     -0.0357      0.0000      0.1548      0.1032
         9         0.0000      0.0000     -0.0085      0.0085      0.0057
        10        -0.0104     -0.0010      0.0000      0.0114      0.0076
        11         0.0000      0.0000     -0.0065      0.0065      0.0043
        12        -0.0088     -0.0053      0.0000      0.0141      0.0094
        13         0.0000      0.0000     -0.0169      0.0169      0.0113
        14        -0.0048     -0.0001      0.0000      0.0048      0.0032
        15        -0.0029      0.0000      0.0000      0.0029      0.0019
        16         0.0000      0.0000     -0.0046      0.0046      0.0031
        17         0.0000      0.0000     -0.0076      0.0076      0.0051
        18         0.0000      0.0000     -0.0136      0.0136      0.0091
        19         0.0000      0.0000     -0.0016      0.0016      0.0011
        20        -0.0031     -0.0615      0.0000      0.0646      0.0430
 Ground to excited state transition densities written to RWF  633

 Excitation energies and oscillator strengths:
 
 Excited state symmetry could not be determined.
 Excited State   1:      Singlet-?Sym    5.6680 eV  218.74 nm  f=0.0008  <S**2>=0.000
      12 -> 16         0.67368
      12 -> 17        -0.19071
 
 Excited state symmetry could not be determined.
 Excited State   2:      Singlet-?Sym    6.8861 eV  180.05 nm  f=0.0170  <S**2>=0.000
      11 -> 13         0.65887
      11 -> 14         0.13796
      11 -> 19        -0.13319
      11 -> 20        -0.13057
 
 Excited state symmetry could not be determined.
 Excited State   3:      Singlet-?Sym    6.9296 eV  178.92 nm  f=0.0478  <S**2>=0.000
      11 -> 16         0.42231
      11 -> 17        -0.17044
      12 -> 13         0.48431
      12 -> 15         0.16928
 
 Excited state symmetry could not be determined.
 Excited State   4:      Singlet-?Sym    7.0860 eV  174.97 nm  f=0.2785  <S**2>=0.000
      11 -> 16         0.44663
      11 -> 17        -0.19098
      12 -> 13        -0.34833
      12 -> 14         0.21047
      12 -> 15        -0.23469
      12 -> 18        -0.15282
 
 Excited state symmetry could not be determined.
 Excited State   5:      Singlet-?Sym    7.5375 eV  164.49 nm  f=0.1308  <S**2>=0.000
      11 -> 16        -0.13031
      12 -> 14         0.62389
      12 -> 15         0.17193
      12 -> 19        -0.14973
      12 -> 21        -0.11477
 
 Excited state symmetry could not be determined.
 Excited State   6:      Singlet-?Sym    7.5631 eV  163.93 nm  f=0.0003  <S**2>=0.000
      11 -> 13        -0.14100
      11 -> 14         0.63066
      11 -> 15         0.17847
      11 -> 21        -0.16063
 This state for optimization and/or second-order correction.
 Copying the excited state density for this state as the 1-particle RhoCI density.
 
 Excited state symmetry could not be determined.
 Excited State   7:      Singlet-?Sym    7.8746 eV  157.45 nm  f=0.0325  <S**2>=0.000
      11 -> 14        -0.16744
      11 -> 15         0.64181
      11 -> 18         0.16914
      11 -> 23        -0.10603
 
 Excited state symmetry could not be determined.
 Excited State   8:      Singlet-?Sym    7.9360 eV  156.23 nm  f=0.1040  <S**2>=0.000
      11 -> 16         0.10953
      12 -> 13        -0.33528
      12 -> 14        -0.10088
      12 -> 15         0.53128
      12 -> 18         0.24316
 
 Excited state symmetry could not be determined.
 Excited State   9:      Singlet-?Sym    8.3581 eV  148.34 nm  f=0.0056  <S**2>=0.000
      12 -> 16         0.18549
      12 -> 17         0.67198
 
 Excited state symmetry could not be determined.
 Excited State  10:      Singlet-?Sym    8.5203 eV  145.52 nm  f=0.0089  <S**2>=0.000
      11 -> 16         0.27472
      11 -> 17         0.64243
 
 Excited state symmetry could not be determined.
 Excited State  11:      Singlet-?Sym    8.9157 eV  139.06 nm  f=0.0045  <S**2>=0.000
      11 -> 15         0.13919
      11 -> 18        -0.64884
      11 -> 24         0.16260
 
 Excited state symmetry could not be determined.
 Excited State  12:      Singlet-?Sym    8.9682 eV  138.25 nm  f=0.0099  <S**2>=0.000
      12 -> 15         0.29026
      12 -> 18        -0.60368
      12 -> 19         0.16743
 
 Excited state symmetry could not be determined.
 Excited State  13:      Singlet-?Sym    9.2067 eV  134.67 nm  f=0.0112  <S**2>=0.000
      11 -> 13         0.11330
      11 -> 19         0.66762
 
 Excited state symmetry could not be determined.
 Excited State  14:      Singlet-?Sym    9.2667 eV  133.80 nm  f=0.0041  <S**2>=0.000
      12 -> 14         0.15111
      12 -> 18         0.15273
      12 -> 19         0.63960
 
 Excited state symmetry could not be determined.
 Excited State  15:      Singlet-?Sym    9.9591 eV  124.49 nm  f=0.0020  <S**2>=0.000
      12 -> 20         0.52946
      12 -> 23         0.40266
      12 -> 24         0.11511
 
 Excited state symmetry could not be determined.
 Excited State  16:      Singlet-?Sym   10.0042 eV  123.93 nm  f=0.0031  <S**2>=0.000
       9 -> 16         0.62411
       9 -> 17        -0.17370
      11 -> 20         0.11707
      11 -> 23         0.19265
 
 Excited state symmetry could not be determined.
 Excited State  17:      Singlet-?Sym   10.0975 eV  122.79 nm  f=0.0046  <S**2>=0.000
       9 -> 16        -0.17675
      11 -> 13         0.14184
      11 -> 20         0.55870
      11 -> 21         0.30602
      11 -> 23         0.11637
 
 Excited state symmetry could not be determined.
 Excited State  18:      Singlet-?Sym   10.2420 eV  121.05 nm  f=0.0109  <S**2>=0.000
       9 -> 16        -0.17171
      11 -> 21        -0.10402
      11 -> 23         0.57742
      11 -> 24         0.25071
      11 -> 26         0.11345
 
 Excited state symmetry could not be determined.
 Excited State  19:      Singlet-?Sym   10.2825 eV  120.58 nm  f=0.0012  <S**2>=0.000
      11 -> 14        -0.18973
      11 -> 20         0.33717
      11 -> 21        -0.53332
      11 -> 24         0.14058
 
 Excited state symmetry could not be determined.
 Excited State  20:      Singlet-?Sym   10.3566 eV  119.72 nm  f=0.0434  <S**2>=0.000
      11 -> 22        -0.20547
      12 -> 14         0.13277
      12 -> 20        -0.20167
      12 -> 21         0.50923
      12 -> 23         0.29740
      12 -> 24         0.12104
 SavETr:  write IOETrn=   770 NScale= 10 NData=  16 NLR=1 LETran=     370.
 FoFJK:  IHMeth= 1 ICntrl=     0 DoSepK=T KAlg= 1 I1Cent= 0 FoldK=F
 FoFJK:  IHMeth= 1 ICntrl=     0 DoSepK=T KAlg= 1 I1Cent= 0 FoldK=F
          IDoAtm=111111
 NEqPCM:  Using equilibrium solvation (IEInf=0, Eps=  78.3553, EpsInf=   1.7778)
          Differentiating once with respect to electric field.
                with respect to dipole field.
          Differentiating once with respect to nuclear coordinates.
          There are     1 degrees of freedom in the 1st order CPHF.  IDoFFX=0.
 FoFJK:  IHMeth= 1 ICntrl=     0 DoSepK=T KAlg= 1 I1Cent= 0 FoldK=F
 LinEq1:  Iter=  0 NonCon=     1 RMS=2.75D-02 Max=2.77D-01
 AX will form     1 AO Fock derivatives at one time.
 FoFJK:  IHMeth= 1 ICntrl=     0 DoSepK=T KAlg= 1 I1Cent= 0 FoldK=F
 LinEq1:  Iter=  1 NonCon=     1 RMS=8.12D-03 Max=1.12D-01
 FoFJK:  IHMeth= 1 ICntrl=     0 DoSepK=T KAlg= 1 I1Cent= 0 FoldK=F
 LinEq1:  Iter=  2 NonCon=     1 RMS=4.80D-03 Max=4.17D-02
 FoFJK:  IHMeth= 1 ICntrl=     0 DoSepK=T KAlg= 1 I1Cent= 0 FoldK=F
 LinEq1:  Iter=  3 NonCon=     1 RMS=2.65D-03 Max=5.05D-02
 FoFJK:  IHMeth= 1 ICntrl=     0 DoSepK=T KAlg= 1 I1Cent= 0 FoldK=F
 LinEq1:  Iter=  4 NonCon=     1 RMS=1.12D-03 Max=1.15D-02
 FoFJK:  IHMeth= 1 ICntrl=     0 DoSepK=T KAlg= 1 I1Cent= 0 FoldK=F
 LinEq1:  Iter=  5 NonCon=     1 RMS=2.05D-04 Max=2.41D-03
 FoFJK:  IHMeth= 1 ICntrl=     0 DoSepK=T KAlg= 1 I1Cent= 0 FoldK=F
 LinEq1:  Iter=  6 NonCon=     1 RMS=3.69D-05 Max=3.37D-04
 FoFJK:  IHMeth= 1 ICntrl=     0 DoSepK=T KAlg= 1 I1Cent= 0 FoldK=F
 LinEq1:  Iter=  7 NonCon=     1 RMS=7.66D-06 Max=5.95D-05
 FoFJK:  IHMeth= 1 ICntrl=     0 DoSepK=T KAlg= 1 I1Cent= 0 FoldK=F
 LinEq1:  Iter=  8 NonCon=     1 RMS=1.52D-06 Max=1.46D-05
 FoFJK:  IHMeth= 1 ICntrl=     0 DoSepK=T KAlg= 1 I1Cent= 0 FoldK=F
 LinEq1:  Iter=  9 NonCon=     1 RMS=2.28D-07 Max=1.69D-06
 FoFJK:  IHMeth= 1 ICntrl=     0 DoSepK=T KAlg= 1 I1Cent= 0 FoldK=F
 LinEq1:  Iter= 10 NonCon=     1 RMS=4.59D-08 Max=3.89D-07
 FoFJK:  IHMeth= 1 ICntrl=     0 DoSepK=T KAlg= 1 I1Cent= 0 FoldK=F
 LinEq1:  Iter= 11 NonCon=     1 RMS=6.38D-09 Max=6.27D-08
[...]
      11 -> 17         0.64358
 
 Excited state symmetry could not be determined.
 Excited State  11:      Singlet-?Sym    8.9109 eV  139.14 nm  f=0.0045  <S**2>=0.000
      11 -> 15         0.13975
      11 -> 18        -0.64736
      11 -> 24         0.16652
 
 Excited state symmetry could not be determined.
 Excited State  12:      Singlet-?Sym    8.9625 eV  138.34 nm  f=0.0096  <S**2>=0.000
      12 -> 15         0.29330
      12 -> 18        -0.60295
      12 -> 19         0.16350
 
 Excited state symmetry could not be determined.
 Excited State  13:      Singlet-?Sym    9.2159 eV  134.53 nm  f=0.0112  <S**2>=0.000
      11 -> 13         0.11312
      11 -> 19         0.66760
 
 Excited state symmetry could not be determined.
 Excited State  14:      Singlet-?Sym    9.2704 eV  133.74 nm  f=0.0038  <S**2>=0.000
      12 -> 14         0.15004
      12 -> 18         0.14909
      12 -> 19         0.63990
      12 -> 21        -0.10283
 
 Excited state symmetry could not be determined.
 Excited State  15:      Singlet-?Sym    9.9628 eV  124.45 nm  f=0.0025  <S**2>=0.000
      12 -> 20         0.53076
      12 -> 23         0.39776
      12 -> 24         0.11343
 
 Excited state symmetry could not be determined.
 Excited State  16:      Singlet-?Sym    9.9805 eV  124.23 nm  f=0.0018  <S**2>=0.000
       9 -> 16         0.64307
       9 -> 17        -0.17562
      11 -> 23         0.15982
 
 Excited state symmetry could not be determined.
 Excited State  17:      Singlet-?Sym   10.0966 eV  122.80 nm  f=0.0038  <S**2>=0.000
       9 -> 16        -0.12381
      11 -> 13         0.14474
      11 -> 20         0.55788
      11 -> 21         0.32916
      11 -> 23         0.11058
 
 Excited state symmetry could not be determined.
 Excited State  18:      Singlet-?Sym   10.2420 eV  121.06 nm  f=0.0138  <S**2>=0.000
       9 -> 16        -0.14356
      11 -> 21        -0.19247
      11 -> 23         0.56072
      11 -> 24         0.27856
      11 -> 26         0.10522
 
 Excited state symmetry could not be determined.
 Excited State  19:      Singlet-?Sym   10.2741 eV  120.68 nm  f=0.0003  <S**2>=0.000
      11 -> 14        -0.18433
      11 -> 20         0.35921
      11 -> 21        -0.49387
      11 -> 23        -0.19571
 
 Excited state symmetry could not be determined.
 Excited State  20:      Singlet-?Sym   10.3508 eV  119.78 nm  f=0.0415  <S**2>=0.000
      11 -> 22        -0.19228
      12 -> 14         0.13694
      12 -> 20        -0.16433
      12 -> 21         0.53814
      12 -> 23         0.28108
      12 -> 24         0.10125
      12 -> 26        -0.10393
 SavETr:  write IOETrn=   770 NScale= 10 NData=  16 NLR=1 LETran=     370.
 FoFJK:  IHMeth= 1 ICntrl=     0 DoSepK=T KAlg= 1 I1Cent= 0 FoldK=F
 FoFJK:  IHMeth= 1 ICntrl=     0 DoSepK=T KAlg= 1 I1Cent= 0 FoldK=F
          IDoAtm=111111
 NEqPCM:  Using equilibrium solvation (IEInf=0, Eps=  78.3553, EpsInf=   1.7778)
          Differentiating once with respect to electric field.
                with respect to dipole field.
          Differentiating once with respect to nuclear coordinates.
          There are     1 degrees of freedom in the 1st order CPHF.  IDoFFX=0.
 FoFJK:  IHMeth= 1 ICntrl=     0 DoSepK=T KAlg= 1 I1Cent= 0 FoldK=F
 LinEq1:  Iter=  0 NonCon=     1 RMS=2.75D-02 Max=2.74D-01
 AX will form     1 AO Fock derivatives at one time.
 FoFJK:  IHMeth= 1 ICntrl=     0 DoSepK=T KAlg= 1 I1Cent= 0 FoldK=F
 LinEq1:  Iter=  1 NonCon=     1 RMS=8.15D-03 Max=1.14D-01
 FoFJK:  IHMeth= 1 ICntrl=     0 DoSepK=T KAlg= 1 I1Cent= 0 FoldK=F
 LinEq1:  Iter=  2 NonCon=     1 RMS=4.88D-03 Max=4.28D-02
 FoFJK:  IHMeth= 1 ICntrl=     0 DoSepK=T KAlg= 1 I1Cent= 0 FoldK=F
 LinEq1:  Iter=  3 NonCon=     1 RMS=2.68D-03 Max=5.09D-02
 FoFJK:  IHMeth= 1 ICntrl=     0 DoSepK=T KAlg= 1 I1Cent= 0 FoldK=F
 LinEq1:  Iter=  4 NonCon=     1 RMS=1.13D-03 Max=1.18D-02
 FoFJK:  IHMeth= 1 ICntrl=     0 DoSepK=T KAlg= 1 I1Cent= 0 FoldK=F
 LinEq1:  Iter=  5 NonCon=     1 RMS=2.06D-04 Max=2.43D-03
 FoFJK:  IHMeth= 1 ICntrl=     0 DoSepK=T KAlg= 1 I1Cent= 0 FoldK=F
 LinEq1:  Iter=  6 NonCon=     1 RMS=3.67D-05 Max=3.39D-04
 FoFJK:  IHMeth= 1 ICntrl=     0 DoSepK=T KAlg= 1 I1Cent= 0 FoldK=F
 LinEq1:  Iter=  7 NonCon=     1 RMS=7.58D-06 Max=6.02D-05
 FoFJK:  IHMeth= 1 ICntrl=     0 DoSepK=T KAlg= 1 I1Cent= 0 FoldK=F
 LinEq1:  Iter=  8 NonCon=     1 RMS=1.50D-06 Max=1.43D-05
 FoFJK:  IHMeth= 1 ICntrl=     0 DoSepK=T KAlg= 1 I1Cent= 0 FoldK=F
 LinEq1:  Iter=  9 NonCon=     1 RMS=2.27D-07 Max=1.66D-06
 FoFJK:  IHMeth= 1 ICntrl=     0 DoSepK=T KAlg= 1 I1Cent= 0 FoldK=F
 LinEq1:  Iter= 10 NonCon=     1 RMS=4.65D-08 Max=3.73D-07
 FoFJK:  IHMeth= 1 ICntrl=     0 DoSepK=T KAlg= 1 I1Cent= 0 FoldK=F
 LinEq1:  Iter= 11 NonCon=     1 RMS=6.88D-09 Max=7.76D-08
 FoFJK:  IHMeth= 1 ICntrl=     0 DoSepK=T KAlg= 1 I1Cent= 0 FoldK=F
 LinEq1:  Iter= 12 NonCon=     1 RMS=1.50D-09 Max=2.38D-08
 FoFJK:  IHMeth= 1 ICntrl=     0 DoSepK=T KAlg= 1 I1Cent= 0 FoldK=F
 LinEq1:  Iter= 13 NonCon=     1 RMS=3.73D-10 Max=6.38D-09
 FoFJK:  IHMeth= 1 ICntrl=     0 DoSepK=T KAlg= 1 I1Cent= 0 FoldK=F
 LinEq1:  Iter= 14 NonCon=     0 RMS=5.47D-11 Max=5.98D-10
 Linear equations converged to 1.000D-10 1.000D-09 after    14 iterations.
 FoFJK:  IHMeth= 1 ICntrl=     0 DoSepK=T KAlg= 1 I1Cent= 0 FoldK=F
 End of Minotr Frequency-dependent properties file   721 does not exist.
 End of Minotr Frequency-dependent properties file   722 does not exist.
 D1PCM: PCM CHGder 1st derivatives, ID1Alg=3 FixD1E=F DoIter=F DoCFld=F I1PDM=6.
 Calling FoFJK, ICntrl=      5127 FMM=F ISym2X=0 I1Cent= 0 IOpClX= 0 NMat=1 NMatS=1 NMatT=0.
 FoFJK:  IHMeth= 1 ICntrl=  5127 DoSepK=T KAlg= 1 I1Cent= 0 FoldK=F
 -------------------------------------------------------------------
 Center     Atomic                   Forces (Hartrees/Bohr)
 Number     Number              X              Y              Z
 -------------------------------------------------------------------
      1        6           0.000396001    0.000464144    0.000030160
      2        7          -0.000238643   -0.000186605    0.000057320
      3        8          -0.000253574   -0.000298950   -0.000032756
      4        1           0.000074274    0.000009925   -0.000007847
      5        1           0.000093760    0.000096915   -0.000044429
      6        1          -0.000071818   -0.000085429   -0.000002447
 -------------------------------------------------------------------
 Cartesian Forces:  Max     0.000464144 RMS     0.000191667

 GradGradGradGradGradGradGradGradGradGradGradGradGradGradGradGradGradGrad
 Berny optimization.
 Using GEDIIS/GDIIS optimizer.
 Internal  Forces:  Max     0.000370049 RMS     0.000118014
 Search for a local minimum.
 Step number   6 out of a maximum of  100
 All quantities printed in internal units (Hartrees-Bohrs-Radians)
 Mixed Optimization -- En-DIIS/RFO-DIIS
 Swaping is turned off.
 Update second derivatives using D2CorX and points    1    2    3    4    5
                                                      6
 DE= -2.38D-05 DEPred=-2.35D-05 R= 1.01D+00
 SS=  1.41D+00  RLast= 1.45D-02 DXNew= 2.1213D-01 4.3470D-02
 Trust test= 1.01D+00 RLast= 1.45D-02 DXMaxT set to 1.26D-01
 The second derivative matrix:
                          R1        R2        R3        R4        R5
           R1           0.46670
           R2           0.09152   0.98817
           R3           0.01234  -0.01873   0.30849
           R4           0.05692  -0.04554  -0.04462   0.36535
           R5          -0.00942   0.02706  -0.00981  -0.00975   0.46138
           A1           0.03754   0.00845  -0.00282  -0.01388   0.00728
           A2           0.00151  -0.02347  -0.00246  -0.00348   0.00666
           A3          -0.03424  -0.01578   0.00641   0.02314  -0.00075
           A4           0.02736  -0.02021  -0.00513  -0.01676   0.00464
           A5           0.00508   0.00743  -0.00242  -0.00451  -0.00127
           A6          -0.03251   0.01272   0.00749   0.02110  -0.00344
           D1          -0.00479   0.00312   0.00115  -0.00360  -0.00134
           D2          -0.01653   0.00963   0.00218  -0.01518  -0.00540
           D3           0.00872  -0.00539  -0.00167   0.00719   0.00263
           D4          -0.00302   0.00112  -0.00064  -0.00439  -0.00142
                          A1        A2        A3        A4        A5
           A1           0.24218
           A2          -0.02909   0.18654
           A3          -0.02054   0.02275   0.17434
           A4          -0.01125   0.00519   0.01258   0.15420
           A5           0.00507  -0.01078  -0.00763  -0.00300   0.16342
           A6           0.00619   0.00561  -0.00497   0.00880  -0.00045
           D1           0.00209   0.00131  -0.00312  -0.00037  -0.00029
           D2           0.00702   0.00452  -0.01066  -0.00099  -0.00156
           D3          -0.00376  -0.00237   0.00565   0.00061   0.00065
           D4           0.00118   0.00084  -0.00188  -0.00001  -0.00062
                          A6        D1        D2        D3        D4
           A6           0.15167
           D1           0.00074   0.03981
           D2           0.00282   0.05039   0.19111
           D3          -0.00141  -0.02718  -0.08982   0.07300
           D4           0.00067   0.00795   0.02636  -0.01419   0.02877
     Eigenvalues ---    0.02455   0.02459   0.11417   0.16008   0.16308
     Eigenvalues ---    0.24822   0.26070   0.28936   0.37870   0.45647
     Eigenvalues ---    0.49851   1.009041000.000001000.000001000.00000
 En-DIIS/RFO-DIIS IScMMF=        0 using points:     6    5    4    3
 RFO step:  Lambda=-2.81482117D-07.
 DIIS coeffs:      0.95982      0.00656      0.03766     -0.00405
 Iteration  1 RMS(Cart)=  0.00025282 RMS(Int)=  0.00000010
 Iteration  2 RMS(Cart)=  0.00000007 RMS(Int)=  0.00000008
 Variable       Old X    -DE/DX   Delta X   Delta X   Delta X     New X
                                  (DIIS)     (GDIIS)  (Total)
    R1        2.54053  -0.00003   0.00004  -0.00022  -0.00018   2.54034
    R2        2.31984   0.00037   0.00000   0.00042   0.00042   2.32025
    R3        2.13850  -0.00007   0.00004  -0.00019  -0.00015   2.13834
    R4        1.98766   0.00001   0.00005   0.00007   0.00012   1.98778
    R5        1.94148   0.00012   0.00003   0.00019   0.00022   1.94171
    A1        2.07159  -0.00015  -0.00003  -0.00047  -0.00050   2.07109
    A2        2.04461   0.00013  -0.00001   0.00064   0.00063   2.04524
    A3        2.16698   0.00002   0.00004  -0.00017  -0.00013   2.16685
    A4        2.12404   0.00007  -0.00003   0.00055   0.00052   2.12456
    A5        2.09285  -0.00004   0.00002  -0.00023  -0.00021   2.09264
    A6        2.06630  -0.00003   0.00001  -0.00032  -0.00031   2.06599
    D1       -0.00002  -0.00001  -0.00006   0.00019   0.00013   0.00011
    D2       -3.14134  -0.00006  -0.00022  -0.00007  -0.00029   3.14156
    D3        3.14156   0.00002   0.00011  -0.00017  -0.00005   3.14151
    D4        0.00024  -0.00002  -0.00005  -0.00042  -0.00047  -0.00023
         Item               Value     Threshold  Converged?
 Maximum Force            0.000370     0.000450     YES
 RMS     Force            0.000118     0.000300     YES
 Maximum Displacement     0.000456     0.001800     YES
 RMS     Displacement     0.000253     0.001200     YES
 Predicted change in Energy=-2.170449D-07
 Optimization completed.
    -- Stationary point found.
                           ----------------------------
                           !   Optimized Parameters   !
                           ! (Angstroms and Degrees)  !
 --------------------------                            --------------------------
 ! Name  Definition              Value          Derivative Info.                !
 --------------------------------------------------------------------------------
 ! R1    R(1,2)                  1.3444         -DE/DX =    0.0                 !
 ! R2    R(1,3)                  1.2276         -DE/DX =    0.0004              !
 ! R3    R(1,6)                  1.1316         -DE/DX =   -0.0001              !
 ! R4    R(2,4)                  1.0518         -DE/DX =    0.0                 !
 ! R5    R(2,5)                  1.0274         -DE/DX =    0.0001              !
 ! A1    A(2,1,3)              118.6935         -DE/DX =   -0.0001              !
 ! A2    A(2,1,6)              117.1474         -DE/DX =    0.0001              !
 ! A3    A(3,1,6)              124.1591         -DE/DX =    0.0                 !
 ! A4    A(1,2,4)              121.6983         -DE/DX =    0.0001              !
 ! A5    A(1,2,5)              119.9113         -DE/DX =    0.0                 !
 ! A6    A(4,2,5)              118.3904         -DE/DX =    0.0                 !
 ! D1    D(3,1,2,4)             -0.001          -DE/DX =    0.0                 !
 ! D2    D(3,1,2,5)            180.0143         -DE/DX =   -0.0001              !
 ! D3    D(6,1,2,4)            179.9983         -DE/DX =    0.0                 !
 ! D4    D(6,1,2,5)              0.0137         -DE/DX =    0.0                 !
 --------------------------------------------------------------------------------
 GradGradGradGradGradGradGradGradGradGradGradGradGradGradGradGradGradGrad

                          Input orientation:                          
 ---------------------------------------------------------------------
 Center     Atomic      Atomic             Coordinates (Angstroms)
 Number     Number       Type             X           Y           Z
 ---------------------------------------------------------------------
      1          6           0       -0.145821    0.424691   -0.000022
      2          7           0        1.062149   -0.165384    0.000011
      3          8           0       -1.148065   -0.284195   -0.000017
      4          1           0        1.165950   -1.212075    0.000058
      5          1           0        1.913352    0.409927    0.000230
      6          1           0       -0.167795    1.556121   -0.000042
 ---------------------------------------------------------------------
                    Distance matrix (angstroms):
                    1          2          3          4          5
     1  C    0.000000
     2  N    1.344389   0.000000
     3  O    1.227604   2.213405   0.000000
     4  H    2.097557   1.051826   2.493116   0.000000
     5  H    2.059227   1.027390   3.139121   1.785918   0.000000
     6  H    1.131643   2.115737   2.085112   3.072749   2.375907
                    6
     6  H    0.000000
 Symmetry turned off by external request.
 Stoichiometry    CH3NO
 Framework group  C1[X(CH3NO)]
 Deg. of freedom    12
 Full point group                 C1      NOp   1
 Rotational constants (GHZ):     64.1838855     11.9933452     10.1051126

 **********************************************************************

            Population analysis using the SCF density.

 **********************************************************************

 Alpha  occ. eigenvalues --  -19.20262 -14.44008 -10.37840  -1.13307  -0.98872
 Alpha  occ. eigenvalues --   -0.70033  -0.62327  -0.55843  -0.49550  -0.48913
 Alpha  occ. eigenvalues --   -0.34565  -0.34205
 Alpha virt. eigenvalues --    0.01668   0.03179   0.04387   0.04661   0.07823
 Alpha virt. eigenvalues --    0.08123   0.09497   0.12812   0.13851   0.15024
 Alpha virt. eigenvalues --    0.15758   0.17635   0.20750   0.21013   0.21215
 Alpha virt. eigenvalues --    0.25893   0.26314   0.27687   0.29620   0.35431
 Alpha virt. eigenvalues --    0.35451   0.36414   0.39446   0.43915   0.45264
 Alpha virt. eigenvalues --    0.48305   0.49396   0.51371   0.52453   0.54397
 Alpha virt. eigenvalues --    0.56241   0.57522   0.58019   0.59230   0.66574
 Alpha virt. eigenvalues --    0.68914   0.72648   0.74174   0.80702   0.83652
 Alpha virt. eigenvalues --    0.85644   0.87230   0.91597   1.05300   1.06089
 Alpha virt. eigenvalues --    1.07046   1.12566   1.17000   1.22306   1.25363
 Alpha virt. eigenvalues --    1.30325   1.36643   1.43093   1.49067   1.50164
 Alpha virt. eigenvalues --    1.65613   1.66832   1.71200   1.76143   1.79187
 Alpha virt. eigenvalues --    1.82836   1.86586   1.98826   2.00190   2.03089
 Alpha virt. eigenvalues --    2.07948   2.15437   2.19593   2.23261   2.25103
 Alpha virt. eigenvalues --    2.43163   2.49719   2.54757   2.61853   2.67058
 Alpha virt. eigenvalues --    2.85731   2.99157   3.13837   3.24121   3.40125
 Alpha virt. eigenvalues --    3.45348   3.45472   3.74940   3.75994
          Condensed to atoms (all electrons):
              1          2          3          4          5          6
     1  C    4.798533   0.287498   0.317417  -0.154226  -0.139543   0.131320
     2  N    0.287498   6.032030  -0.093775   0.406864   0.348650  -0.033725
     3  O    0.317417  -0.093775   8.417687  -0.000172   0.003019  -0.085606
     4  H   -0.154226   0.406864  -0.000172   0.923222  -0.185267   0.036365
     5  H   -0.139543   0.348650   0.003019  -0.185267   1.000797  -0.005237
     6  H    0.131320  -0.033725  -0.085606   0.036365  -0.005237   1.160566
 Mulliken atomic charges:
              1
     1  C    0.759001
     2  N    0.052458
     3  O   -0.558570
     4  H   -0.026786
     5  H   -0.022419
     6  H   -0.203683
 Sum of Mulliken atomic charges =   0.00000
 Mulliken charges with hydrogens summed into heavy atoms:
              1
     1  C    0.555318
     2  N    0.003252
     3  O   -0.558570
 Sum of Mulliken charges with hydrogens summed into heavy atoms =   0.00000
 Electronic spatial extent (au):  <R**2>=            144.8758
 Charge=              0.0000 electrons
 Dipole moment (field-independent basis, Debye):
    X=              4.9420    Y=              1.4515    Z=              0.0005  Tot=              5.1508
 Quadrupole moment (field-independent basis, Debye-Ang):
   XX=            -18.5594   YY=            -14.8113   ZZ=            -19.3361
   XY=             -1.8099   XZ=              0.0009   YZ=              0.0000
 Traceless Quadrupole moment (field-independent basis, Debye-Ang):
   XX=             -0.9904   YY=              2.7576   ZZ=             -1.7672
   XY=             -1.8099   XZ=              0.0009   YZ=              0.0000
 Octapole moment (field-independent basis, Debye-Ang**2):
  XXX=             16.2372  YYY=             -0.1913  ZZZ=              0.0002  XYY=              3.6825
  XXY=              1.2828  XXZ=              0.0022  XZZ=             -1.0295  YZZ=              0.1252
  YYZ=              0.0002  XYZ=              0.0003
 Hexadecapole moment (field-independent basis, Debye-Ang**3):
 XXXX=           -111.0869 YYYY=            -34.9091 ZZZZ=            -19.8568 XXXY=              1.4266
 XXXZ=              0.0024 YYYX=             -5.5008 YYYZ=              0.0000 ZZZX=             -0.0012
 ZZZY=              0.0003 XXYY=            -23.5386 XXZZ=            -25.8243 YYZZ=            -10.7945
 XXYZ=              0.0006 YYXZ=              0.0000 ZZXY=             -0.0754
 N-N= 7.111900078217D+01 E-N=-5.403446653061D+02  KE= 1.686663929153D+02
 1\1\GINC-CLODOMIRA\FOpt\RTD-CAM-B3LYP-FC\Aug-CC-pVDZ\C1H3N1O1\DIEGOA\2
 8-Oct-2019\0\\# cam-b3lyp/aug-cc-pvdz opt(maxcycle=100) nosymm td(root
 =6,nstates=20) SCRF=PCM int(grid=ultrafine)\\Title\\0,1\C,-0.145821111
 3,0.4246912593,-0.0000224578\N,1.0621492057,-0.16538351,0.0000109965\O
 ,-1.1480651792,-0.2841948594,-0.000016906\H,1.1659498632,-1.2120750036
 ,0.0000578235\H,1.9133524669,0.4099271586,0.0002299799\H,-0.1677952452
 ,1.5561209551,-0.000042436\\Version=EM64L-G09RevA.01\HF=-169.8597097\R
 MSD=6.466e-09\RMSF=1.917e-04\Dipole=1.4686543,-1.0815185,-0.0002896\PG
 =C01 [X(C1H3N1O1)]\\@


 CONTRAIWISE...CONTINUED TWEEDLEDEE, IF IT WAS SO, IT MIGHT BE,
 AND IF IT WERE SO, IT WOULD BE.....
 BUT AS IT ISN'T, IT AIN'T....
 THAT'S LOGIC.....
 ALICE THROUGH THE LOOKING GLASS
 Job cpu time:  0 days  1 hours 15 minutes  6.1 seconds.
 File lengths (MBytes):  RWF=     59 Int=      0 D2E=      0 Chk=      8 Scr=      1
 Normal termination of Gaussian 09 at Mon Oct 28 13:29:53 2019.
