Title                                                                   
FOpt      RTD-CAM-B3LYP-FC                                            Aug-CC-pVDZ         
Number of atoms                            I                6
Info1-9                                    I   N=           9
          14          14           0           0           0         100
           2         218           1
Charge                                     I                0
Multiplicity                               I                1
Number of electrons                        I               24
Number of alpha electrons                  I               12
Number of beta electrons                   I               12
Number of basis functions                  I               96
Number of independent functions            I               96
Number of point charges in /Mol/           I                0
Number of translation vectors              I                0
Atomic numbers                             I   N=           6
           6           7           8           1           1           1
Nuclear charges                            R   N=           6
  6.00000000E+00  7.00000000E+00  8.00000000E+00  1.00000000E+00  1.00000000E+00
  1.00000000E+00
Current cartesian coordinates              R   N=          18
 -2.75561965E-01  8.02550171E-01 -4.24391822E-05  2.00717111E+00 -3.12529541E-01
  2.07803771E-05 -2.16952877E+00 -5.37050453E-01 -3.19477878E-05  2.20332593E+00
 -2.29048981E+00  1.09270535E-04  3.61571216E+00  7.74650064E-01  4.34599112E-04
 -3.17087060E-01  2.94064243E+00 -8.01924836E-05
Force Field                                I                0
Int Atom Types                             I   N=           6
           0           0           0           0           0           0
MM charges                                 R   N=           6
  0.00000000E+00  0.00000000E+00  0.00000000E+00  0.00000000E+00  0.00000000E+00
  0.00000000E+00
Integer atomic weights                     I   N=           6
          12          14          16           1           1           1
Real atomic weights                        R   N=           6
  1.20000000E+01  1.40030740E+01  1.59949146E+01  1.00782504E+00  1.00782504E+00
  1.00782504E+00
Atom fragment info                         I   N=           6
           0           0           0           0           0           0
Atom residue num                           I   N=           6
           0           0           0           0           0           0
Nuclear spins                              I   N=           6
           0           2           0           1           1           1
Nuclear ZEff                               R   N=           6
 -3.60000000E+00 -4.55000000E+00 -5.60000000E+00 -1.00000000E+00 -1.00000000E+00
 -1.00000000E+00
Nuclear QMom                               R   N=           6
  0.00000000E+00  2.04400000E+00  0.00000000E+00  0.00000000E+00  0.00000000E+00
  0.00000000E+00
Nuclear GFac                               R   N=           6
  0.00000000E+00  4.03761000E-01  0.00000000E+00  2.79284600E+00  2.79284600E+00
  2.79284600E+00
MicOpt                                     I   N=           6
          -1          -1          -1          -1          -1          -1
Number of contracted shells                I               42
Number of primitive shells                 I               90
Pure/Cartesian d shells                    I                0
Pure/Cartesian f shells                    I                0
Highest angular momentum                   I                2
Largest degree of contraction              I                7
Shell types                                I   N=          42
           0           0           0           0           1           1
           1          -2          -2           0           0           0
           0           1           1           1          -2          -2
           0           0           0           0           1           1
           1          -2          -2           0           0           0
           1           1           0           0           0           1
           1           0           0           0           1           1
Number of primitives per shell             I   N=          42
           7           7           1           1           3           1
           1           1           1           7           7           1
           1           3           1           1           1           1
           7           7           1           1           3           1
           1           1           1           3           1           1
           1           1           3           1           1           1
           1           3           1           1           1           1
Shell to atom map                          I   N=          42
           1           1           1           1           1           1
           1           1           1           2           2           2
           2           2           2           2           2           2
           3           3           3           3           3           3
           3           3           3           4           4           4
           4           4           5           5           5           5
           5           6           6           6           6           6
Primitive exponents                        R   N=          90
  6.66500000E+03  1.00000000E+03  2.28000000E+02  6.47100000E+01  2.10600000E+01
  7.49500000E+00  2.79700000E+00  6.66500000E+03  2.28000000E+02  6.47100000E+01
  2.10600000E+01  7.49500000E+00  2.79700000E+00  5.21500000E-01  1.59600000E-01
  4.69000000E-02  9.43900000E+00  2.00200000E+00  5.45600000E-01  1.51700000E-01
  4.04100000E-02  5.50000000E-01  1.51000000E-01  9.04600000E+03  1.35700000E+03
  3.09300000E+02  8.77300000E+01  2.85600000E+01  1.02100000E+01  3.83800000E+00
  9.04600000E+03  3.09300000E+02  8.77300000E+01  2.85600000E+01  1.02100000E+01
  3.83800000E+00  7.46600000E-01  2.24800000E-01  6.12400000E-02  1.35500000E+01
  2.91700000E+00  7.97300000E-01  2.18500000E-01  5.61100000E-02  8.17000000E-01
  2.30000000E-01  1.17200000E+04  1.75900000E+03  4.00800000E+02  1.13700000E+02
  3.70300000E+01  1.32700000E+01  5.02500000E+00  1.17200000E+04  4.00800000E+02
  1.13700000E+02  3.70300000E+01  1.32700000E+01  5.02500000E+00  1.01300000E+00
  3.02300000E-01  7.89600000E-02  1.77000000E+01  3.85400000E+00  1.04600000E+00
  2.75300000E-01  6.85600000E-02  1.18500000E+00  3.32000000E-01  1.30100000E+01
  1.96200000E+00  4.44600000E-01  1.22000000E-01  2.97400000E-02  7.27000000E-01
  1.41000000E-01  1.30100000E+01  1.96200000E+00  4.44600000E-01  1.22000000E-01
  2.97400000E-02  7.27000000E-01  1.41000000E-01  1.30100000E+01  1.96200000E+00
  4.44600000E-01  1.22000000E-01  2.97400000E-02  7.27000000E-01  1.41000000E-01
Contraction coefficients                   R   N=          90
  6.93516317E-04  5.34150243E-03  2.71366714E-02  1.01992385E-01  2.75508636E-01
  4.51086433E-01  2.87565745E-01  7.73354740E-06  2.78072137E-04 -2.57875654E-03
 -8.95087684E-03 -1.06058855E-01 -1.31517686E-01  1.09948660E+00  1.00000000E+00
  1.00000000E+00  5.69792516E-02  3.13207212E-01  7.60376742E-01  1.00000000E+00
  1.00000000E+00  1.00000000E+00  1.00000000E+00  7.01708743E-04  5.40299880E-03
  2.74729510E-02  1.03514580E-01  2.79586579E-01  4.51317241E-01  2.80626875E-01
  7.77446797E-06  3.00742072E-04 -2.80016549E-03 -9.89708505E-03 -1.14331114E-01
 -1.18162383E-01  1.09786885E+00  1.00000000E+00  1.00000000E+00  5.89056768E-02
  3.20461107E-01  7.53042062E-01  1.00000000E+00  1.00000000E+00  1.00000000E+00
  1.00000000E+00  7.11864434E-04  5.48520199E-03  2.79099296E-02  1.05133208E-01
  2.84002490E-01  4.51673946E-01  2.73208126E-01  7.69030046E-06  3.13484579E-04
 -2.96614853E-03 -1.08753543E-02 -1.20753817E-01 -1.06275264E-01  1.09597548E+00
  1.00000000E+00  1.00000000E+00  6.26791663E-02  3.33536566E-01  7.41239642E-01
  1.00000000E+00  1.00000000E+00  1.00000000E+00  1.00000000E+00  3.34987264E-02
  2.34800801E-01  8.13682958E-01  1.00000000E+00  1.00000000E+00  1.00000000E+00
  1.00000000E+00  3.34987264E-02  2.34800801E-01  8.13682958E-01  1.00000000E+00
  1.00000000E+00  1.00000000E+00  1.00000000E+00  3.34987264E-02  2.34800801E-01
  8.13682958E-01  1.00000000E+00  1.00000000E+00  1.00000000E+00  1.00000000E+00
Coordinates of each shell                  R   N=         126
 -2.75561965E-01  8.02550171E-01 -4.24391822E-05 -2.75561965E-01  8.02550171E-01
 -4.24391822E-05 -2.75561965E-01  8.02550171E-01 -4.24391822E-05 -2.75561965E-01
  8.02550171E-01 -4.24391822E-05 -2.75561965E-01  8.02550171E-01 -4.24391822E-05
 -2.75561965E-01  8.02550171E-01 -4.24391822E-05 -2.75561965E-01  8.02550171E-01
 -4.24391822E-05 -2.75561965E-01  8.02550171E-01 -4.24391822E-05 -2.75561965E-01
  8.02550171E-01 -4.24391822E-05  2.00717111E+00 -3.12529541E-01  2.07803771E-05
  2.00717111E+00 -3.12529541E-01  2.07803771E-05  2.00717111E+00 -3.12529541E-01
  2.07803771E-05  2.00717111E+00 -3.12529541E-01  2.07803771E-05  2.00717111E+00
 -3.12529541E-01  2.07803771E-05  2.00717111E+00 -3.12529541E-01  2.07803771E-05
  2.00717111E+00 -3.12529541E-01  2.07803771E-05  2.00717111E+00 -3.12529541E-01
  2.07803771E-05  2.00717111E+00 -3.12529541E-01  2.07803771E-05 -2.16952877E+00
 -5.37050453E-01 -3.19477878E-05 -2.16952877E+00 -5.37050453E-01 -3.19477878E-05
 -2.16952877E+00 -5.37050453E-01 -3.19477878E-05 -2.16952877E+00 -5.37050453E-01
 -3.19477878E-05 -2.16952877E+00 -5.37050453E-01 -3.19477878E-05 -2.16952877E+00
 -5.37050453E-01 -3.19477878E-05 -2.16952877E+00 -5.37050453E-01 -3.19477878E-05
 -2.16952877E+00 -5.37050453E-01 -3.19477878E-05 -2.16952877E+00 -5.37050453E-01
 -3.19477878E-05  2.20332593E+00 -2.29048981E+00  1.09270535E-04  2.20332593E+00
 -2.29048981E+00  1.09270535E-04  2.20332593E+00 -2.29048981E+00  1.09270535E-04
  2.20332593E+00 -2.29048981E+00  1.09270535E-04  2.20332593E+00 -2.29048981E+00
  1.09270535E-04  3.61571216E+00  7.74650064E-01  4.34599112E-04  3.61571216E+00
  7.74650064E-01  4.34599112E-04  3.61571216E+00  7.74650064E-01  4.34599112E-04
  3.61571216E+00  7.74650064E-01  4.34599112E-04  3.61571216E+00  7.74650064E-01
  4.34599112E-04 -3.17087060E-01  2.94064243E+00 -8.01924836E-05 -3.17087060E-01
  2.94064243E+00 -8.01924836E-05 -3.17087060E-01  2.94064243E+00 -8.01924836E-05
 -3.17087060E-01  2.94064243E+00 -8.01924836E-05 -3.17087060E-01  2.94064243E+00
 -8.01924836E-05
Density Number of contracted shells        I               84
Density Number of primitive shells         I               84
Density Pure/Cartesian d shells            I                0
Density Pure/Cartesian f shells            I                0
Density Highest angular momentum           I                3
Density Largest degree of contraction      I                1
Density Shell types                        I   N=          84
           0           0           0           0           0          -1
          -2          -1          -2          -1          -2          -3
          -1          -2          -3          -1          -2          -3
           0           0           0           0           0          -1
          -2          -1          -2          -1          -2          -3
          -1          -2          -3          -1          -2          -3
           0           0           0           0           0          -1
          -2          -1          -2          -1          -2          -3
          -1          -2          -3          -1          -2          -3
           0           0          -1          -2          -1          -2
          -1          -2          -1          -2           0           0
          -1          -2          -1          -2          -1          -2
          -1          -2           0           0          -1          -2
          -1          -2          -1          -2          -1          -2
Density Number of primitives per shell     I   N=          84
           1           1           1           1           1           1
           1           1           1           1           1           1
           1           1           1           1           1           1
           1           1           1           1           1           1
           1           1           1           1           1           1
           1           1           1           1           1           1
           1           1           1           1           1           1
           1           1           1           1           1           1
           1           1           1           1           1           1
           1           1           1           1           1           1
           1           1           1           1           1           1
           1           1           1           1           1           1
           1           1           1           1           1           1
           1           1           1           1           1           1
Density Shell to atom map                  I   N=          84
           1           1           1           1           1           1
           1           1           1           1           1           1
           1           1           1           1           1           1
           2           2           2           2           2           2
           2           2           2           2           2           2
           2           2           2           2           2           2
           3           3           3           3           3           3
           3           3           3           3           3           3
           3           3           3           3           3           3
           4           4           4           4           4           4
           4           4           4           4           5           5
           5           5           5           5           5           5
           5           5           6           6           6           6
           6           6           6           6           6           6
Density Primitive exponents                R   N=          84
  1.33300000E+04  2.00000000E+03  4.56000000E+02  1.29420000E+02  4.21200000E+01
  1.68220457E+01  1.68220457E+01  4.73269226E+00  4.73269226E+00  1.06897221E+00
  1.06897221E+00  1.06897221E+00  3.10840122E-01  3.10840122E-01  3.10840122E-01
  8.70684558E-02  8.70684558E-02  8.70684558E-02  1.80920000E+04  2.71400000E+03
  6.18600000E+02  1.75460000E+02  5.71200000E+01  2.35240728E+01  2.35240728E+01
  6.69191931E+00  6.69191931E+00  1.55251192E+00  1.55251192E+00  1.55251192E+00
  4.45796600E-01  4.45796600E-01  4.45796600E-01  1.17237816E-01  1.17237816E-01
  1.17237816E-01  2.34400000E+04  3.51800000E+03  8.01600000E+02  2.27400000E+02
  7.40600000E+01  3.06515252E+01  3.06515252E+01  8.80144306E+00  8.80144306E+00
  2.20889185E+00  2.20889185E+00  2.20889185E+00  5.90645853E-01  5.90645853E-01
  5.90645853E-01  1.47152949E-01  1.47152949E-01  1.47152949E-01  2.60200000E+01
  3.92400000E+00  1.45400000E+00  1.45400000E+00  8.89200000E-01  8.89200000E-01
  2.62312790E-01  2.62312790E-01  5.94800000E-02  5.94800000E-02  2.60200000E+01
  3.92400000E+00  1.45400000E+00  1.45400000E+00  8.89200000E-01  8.89200000E-01
  2.62312790E-01  2.62312790E-01  5.94800000E-02  5.94800000E-02  2.60200000E+01
  3.92400000E+00  1.45400000E+00  1.45400000E+00  8.89200000E-01  8.89200000E-01
  2.62312790E-01  2.62312790E-01  5.94800000E-02  5.94800000E-02
Density Contraction coefficients           R   N=          84
  1.00000000E+00  1.00000000E+00  1.00000000E+00  1.00000000E+00  1.00000000E+00
  1.00000000E+00  1.00000000E+00  1.00000000E+00  1.00000000E+00  1.00000000E+00
  1.00000000E+00  1.00000000E+00  1.00000000E+00  1.00000000E+00  1.00000000E+00
  1.00000000E+00  1.00000000E+00  1.00000000E+00  1.00000000E+00  1.00000000E+00
  1.00000000E+00  1.00000000E+00  1.00000000E+00  1.00000000E+00  1.00000000E+00
  1.00000000E+00  1.00000000E+00  1.00000000E+00  1.00000000E+00  1.00000000E+00
  1.00000000E+00  1.00000000E+00  1.00000000E+00  1.00000000E+00  1.00000000E+00
  1.00000000E+00  1.00000000E+00  1.00000000E+00  1.00000000E+00  1.00000000E+00
  1.00000000E+00  1.00000000E+00  1.00000000E+00  1.00000000E+00  1.00000000E+00
  1.00000000E+00  1.00000000E+00  1.00000000E+00  1.00000000E+00  1.00000000E+00
  1.00000000E+00  1.00000000E+00  1.00000000E+00  1.00000000E+00  1.00000000E+00
  1.00000000E+00  1.00000000E+00  1.00000000E+00  1.00000000E+00  1.00000000E+00
  1.00000000E+00  1.00000000E+00  1.00000000E+00  1.00000000E+00  1.00000000E+00
  1.00000000E+00  1.00000000E+00  1.00000000E+00  1.00000000E+00  1.00000000E+00
  1.00000000E+00  1.00000000E+00  1.00000000E+00  1.00000000E+00  1.00000000E+00
  1.00000000E+00  1.00000000E+00  1.00000000E+00  1.00000000E+00  1.00000000E+00
  1.00000000E+00  1.00000000E+00  1.00000000E+00  1.00000000E+00
Density P(S=P) Contraction coefficients    R   N=          84
  0.00000000E+00  0.00000000E+00  0.00000000E+00  0.00000000E+00  0.00000000E+00
  1.00000000E+00  0.00000000E+00  1.00000000E+00  0.00000000E+00  1.00000000E+00
  0.00000000E+00  0.00000000E+00  1.00000000E+00  0.00000000E+00  0.00000000E+00
  1.00000000E+00  0.00000000E+00  0.00000000E+00  0.00000000E+00  0.00000000E+00
  0.00000000E+00  0.00000000E+00  0.00000000E+00  1.00000000E+00  0.00000000E+00
  1.00000000E+00  0.00000000E+00  1.00000000E+00  0.00000000E+00  0.00000000E+00
  1.00000000E+00  0.00000000E+00  0.00000000E+00  1.00000000E+00  0.00000000E+00
  0.00000000E+00  0.00000000E+00  0.00000000E+00  0.00000000E+00  0.00000000E+00
  0.00000000E+00  1.00000000E+00  0.00000000E+00  1.00000000E+00  0.00000000E+00
  1.00000000E+00  0.00000000E+00  0.00000000E+00  1.00000000E+00  0.00000000E+00
  0.00000000E+00  1.00000000E+00  0.00000000E+00  0.00000000E+00  0.00000000E+00
  0.00000000E+00  1.00000000E+00  0.00000000E+00  1.00000000E+00  0.00000000E+00
  1.00000000E+00  0.00000000E+00  1.00000000E+00  0.00000000E+00  0.00000000E+00
  0.00000000E+00  1.00000000E+00  0.00000000E+00  1.00000000E+00  0.00000000E+00
  1.00000000E+00  0.00000000E+00  1.00000000E+00  0.00000000E+00  0.00000000E+00
  0.00000000E+00  1.00000000E+00  0.00000000E+00  1.00000000E+00  0.00000000E+00
  1.00000000E+00  0.00000000E+00  1.00000000E+00  0.00000000E+00
Density Coordinates of each shell          R   N=         252
 -2.75561965E-01  8.02550171E-01 -4.24391822E-05 -2.75561965E-01  8.02550171E-01
 -4.24391822E-05 -2.75561965E-01  8.02550171E-01 -4.24391822E-05 -2.75561965E-01
  8.02550171E-01 -4.24391822E-05 -2.75561965E-01  8.02550171E-01 -4.24391822E-05
 -2.75561965E-01  8.02550171E-01 -4.24391822E-05 -2.75561965E-01  8.02550171E-01
 -4.24391822E-05 -2.75561965E-01  8.02550171E-01 -4.24391822E-05 -2.75561965E-01
  8.02550171E-01 -4.24391822E-05 -2.75561965E-01  8.02550171E-01 -4.24391822E-05
 -2.75561965E-01  8.02550171E-01 -4.24391822E-05 -2.75561965E-01  8.02550171E-01
 -4.24391822E-05 -2.75561965E-01  8.02550171E-01 -4.24391822E-05 -2.75561965E-01
  8.02550171E-01 -4.24391822E-05 -2.75561965E-01  8.02550171E-01 -4.24391822E-05
 -2.75561965E-01  8.02550171E-01 -4.24391822E-05 -2.75561965E-01  8.02550171E-01
 -4.24391822E-05 -2.75561965E-01  8.02550171E-01 -4.24391822E-05  2.00717111E+00
 -3.12529541E-01  2.07803771E-05  2.00717111E+00 -3.12529541E-01  2.07803771E-05
  2.00717111E+00 -3.12529541E-01  2.07803771E-05  2.00717111E+00 -3.12529541E-01
  2.07803771E-05  2.00717111E+00 -3.12529541E-01  2.07803771E-05  2.00717111E+00
 -3.12529541E-01  2.07803771E-05  2.00717111E+00 -3.12529541E-01  2.07803771E-05
  2.00717111E+00 -3.12529541E-01  2.07803771E-05  2.00717111E+00 -3.12529541E-01
  2.07803771E-05  2.00717111E+00 -3.12529541E-01  2.07803771E-05  2.00717111E+00
 -3.12529541E-01  2.07803771E-05  2.00717111E+00 -3.12529541E-01  2.07803771E-05
  2.00717111E+00 -3.12529541E-01  2.07803771E-05  2.00717111E+00 -3.12529541E-01
  2.07803771E-05  2.00717111E+00 -3.12529541E-01  2.07803771E-05  2.00717111E+00
 -3.12529541E-01  2.07803771E-05  2.00717111E+00 -3.12529541E-01  2.07803771E-05
  2.00717111E+00 -3.12529541E-01  2.07803771E-05 -2.16952877E+00 -5.37050453E-01
 -3.19477878E-05 -2.16952877E+00 -5.37050453E-01 -3.19477878E-05 -2.16952877E+00
 -5.37050453E-01 -3.19477878E-05 -2.16952877E+00 -5.37050453E-01 -3.19477878E-05
 -2.16952877E+00 -5.37050453E-01 -3.19477878E-05 -2.16952877E+00 -5.37050453E-01
 -3.19477878E-05 -2.16952877E+00 -5.37050453E-01 -3.19477878E-05 -2.16952877E+00
 -5.37050453E-01 -3.19477878E-05 -2.16952877E+00 -5.37050453E-01 -3.19477878E-05
 -2.16952877E+00 -5.37050453E-01 -3.19477878E-05 -2.16952877E+00 -5.37050453E-01
 -3.19477878E-05 -2.16952877E+00 -5.37050453E-01 -3.19477878E-05 -2.16952877E+00
 -5.37050453E-01 -3.19477878E-05 -2.16952877E+00 -5.37050453E-01 -3.19477878E-05
 -2.16952877E+00 -5.37050453E-01 -3.19477878E-05 -2.16952877E+00 -5.37050453E-01
 -3.19477878E-05 -2.16952877E+00 -5.37050453E-01 -3.19477878E-05 -2.16952877E+00
 -5.37050453E-01 -3.19477878E-05  2.20332593E+00 -2.29048981E+00  1.09270535E-04
  2.20332593E+00 -2.29048981E+00  1.09270535E-04  2.20332593E+00 -2.29048981E+00
  1.09270535E-04  2.20332593E+00 -2.29048981E+00  1.09270535E-04  2.20332593E+00
 -2.29048981E+00  1.09270535E-04  2.20332593E+00 -2.29048981E+00  1.09270535E-04
  2.20332593E+00 -2.29048981E+00  1.09270535E-04  2.20332593E+00 -2.29048981E+00
  1.09270535E-04  2.20332593E+00 -2.29048981E+00  1.09270535E-04  2.20332593E+00
 -2.29048981E+00  1.09270535E-04  3.61571216E+00  7.74650064E-01  4.34599112E-04
  3.61571216E+00  7.74650064E-01  4.34599112E-04  3.61571216E+00  7.74650064E-01
  4.34599112E-04  3.61571216E+00  7.74650064E-01  4.34599112E-04  3.61571216E+00
  7.74650064E-01  4.34599112E-04  3.61571216E+00  7.74650064E-01  4.34599112E-04
  3.61571216E+00  7.74650064E-01  4.34599112E-04  3.61571216E+00  7.74650064E-01
  4.34599112E-04  3.61571216E+00  7.74650064E-01  4.34599112E-04  3.61571216E+00
  7.74650064E-01  4.34599112E-04 -3.17087060E-01  2.94064243E+00 -8.01924836E-05
 -3.17087060E-01  2.94064243E+00 -8.01924836E-05 -3.17087060E-01  2.94064243E+00
 -8.01924836E-05 -3.17087060E-01  2.94064243E+00 -8.01924836E-05 -3.17087060E-01
  2.94064243E+00 -8.01924836E-05 -3.17087060E-01  2.94064243E+00 -8.01924836E-05
 -3.17087060E-01  2.94064243E+00 -8.01924836E-05 -3.17087060E-01  2.94064243E+00
 -8.01924836E-05 -3.17087060E-01  2.94064243E+00 -8.01924836E-05 -3.17087060E-01
  2.94064243E+00 -8.01924836E-05
Constraint Structure                       R   N=          18
 -2.80446696E-01  7.35880143E-01 -1.51178091E-05  2.03313745E+00 -3.04100398E-01
  1.13383568E-04 -2.26580242E+00 -4.61796155E-01 -1.43619186E-04  2.23366952E+00
 -2.20464521E+00  1.73854804E-04  3.59611482E+00  7.87938319E-01  2.91017824E-04
 -2.52641266E-01  2.82449617E+00 -9.44863066E-06
Num ILSW                                   I              100
ILSW                                       I   N=         100
           0           0           0           0           2           0
           0           0           0           0       20419          -1
           5           0           0           0           0           0
           0           0           1           0           1           0
           1           1           0           0           0           0
           0           0      100000           0          -1           0
           0           0           0           0           0           0
           0           0           0           1           0           0
           0           0           1           0           0           0
           0           0           4          40           0           0
           0           0          40           0           0           0
           0           0           0           0           0           0
           0           0           0           0           0           0
           0           0           0           0           0           0
           0           0           0           0           0           0
           0           0           0           0           0           0
           0           0           0           0
Num RLSW                                   I               40
RLSW                                       R   N=          40
  1.00000000E+00  1.00000000E+00  1.00000000E+00  8.10000000E-01  1.00000000E+00
  0.00000000E+00  3.30000000E-01  1.90000000E-01  0.00000000E+00  4.60000000E-01
  0.00000000E+00  3.30000000E-01  1.90000000E-01  0.00000000E+00  4.60000000E-01
  0.00000000E+00  0.00000000E+00  1.00000000E+00  0.00000000E+00  0.00000000E+00
  0.00000000E+00  0.00000000E+00  1.00000000E+00  0.00000000E+00  0.00000000E+00
  0.00000000E+00  0.00000000E+00  1.00000000E+00  0.00000000E+00  0.00000000E+00
  0.00000000E+00  0.00000000E+00  0.00000000E+00  0.00000000E+00  0.00000000E+00
  0.00000000E+00  0.00000000E+00  0.00000000E+00  1.00000000E+00  1.00000000E+00
MxBond                                     I                3
NBond                                      I   N=           6
           3           3           1           1           1           1
IBond                                      I   N=          18
           2           3           6           1           4           5
           1           0           0           2           0           0
           2           0           0           1           0           0
RBond                                      R   N=          18
  1.41000000E+00  2.00000000E+00  1.00000000E+00  1.41000000E+00  1.00000000E+00
  1.00000000E+00  2.00000000E+00  0.00000000E+00  0.00000000E+00  1.00000000E+00
  0.00000000E+00  0.00000000E+00  1.00000000E+00  0.00000000E+00  0.00000000E+00
  1.00000000E+00  0.00000000E+00  0.00000000E+00
Virial Ratio                               R      2.007075012118039E+00
SCF Energy                                 R     -1.698597096891312E+02
CIS Energy                                 R     -1.695818587325641E+02
Total Energy                               R     -1.695818587325641E+02
Post-SCF wavefunction norm                 R      1.000000000000000E+00
RMS Force                                  R      1.916672086472699E-04
RMS Density                                R      6.466336131362011E-09
External E-field                           R   N=          35
  0.00000000E+00  0.00000000E+00  0.00000000E+00  0.00000000E+00  0.00000000E+00
  0.00000000E+00  0.00000000E+00  0.00000000E+00  0.00000000E+00  0.00000000E+00
  0.00000000E+00  0.00000000E+00  0.00000000E+00  0.00000000E+00  0.00000000E+00
  0.00000000E+00  0.00000000E+00  0.00000000E+00  0.00000000E+00  0.00000000E+00
  0.00000000E+00  0.00000000E+00  0.00000000E+00  0.00000000E+00  0.00000000E+00
  0.00000000E+00  0.00000000E+00  0.00000000E+00  0.00000000E+00  0.00000000E+00
  0.00000000E+00  0.00000000E+00  0.00000000E+00  0.00000000E+00  0.00000000E+00
IOpCl                                      I                0
IROHF                                      I                0
Alpha Orbital Energies                     R   N=          96
 -1.92026247E+01 -1.44400821E+01 -1.03784047E+01 -1.13306973E+00 -9.88716635E-01
 -7.00325566E-01 -6.23271308E-01 -5.58434619E-01 -4.95501769E-01 -4.89127222E-01
 -3.45646278E-01 -3.42054716E-01  1.66783767E-02  3.17880168E-02  4.38705896E-02
  4.66135089E-02  7.82343408E-02  8.12317293E-02  9.49718901E-02  1.28124094E-01
  1.38505834E-01  1.50243595E-01  1.57579737E-01  1.76345920E-01  2.07503979E-01
  2.10130571E-01  2.12153891E-01  2.58927963E-01  2.63139502E-01  2.76872685E-01
  2.96196853E-01  3.54305271E-01  3.54506065E-01  3.64138466E-01  3.94459691E-01
  4.39146365E-01  4.52643403E-01  4.83054848E-01  4.93958173E-01  5.13712453E-01
  5.24526288E-01  5.43969262E-01  5.62407053E-01  5.75215345E-01  5.80192167E-01
  5.92298920E-01  6.65744017E-01  6.89140096E-01  7.26480950E-01  7.41735626E-01
  8.07017358E-01  8.36517740E-01  8.56436800E-01  8.72300866E-01  9.15973993E-01
  1.05300357E+00  1.06088606E+00  1.07046064E+00  1.12565914E+00  1.16999646E+00
  1.22306463E+00  1.25362554E+00  1.30325400E+00  1.36643164E+00  1.43093008E+00
  1.49067456E+00  1.50163546E+00  1.65613060E+00  1.66832014E+00  1.71200077E+00
  1.76143499E+00  1.79186641E+00  1.82836005E+00  1.86586217E+00  1.98826429E+00
  2.00190339E+00  2.03089165E+00  2.07947941E+00  2.15436705E+00  2.19592517E+00
  2.23261487E+00  2.25103191E+00  2.43162691E+00  2.49719041E+00  2.54756766E+00
  2.61853087E+00  2.67057586E+00  2.85731018E+00  2.99157422E+00  3.13837304E+00
  3.24120665E+00  3.40124525E+00  3.45347729E+00  3.45472429E+00  3.74939592E+00
  3.75993794E+00
Alpha MO coefficients                      R   N=        9216
  1.82045869E-04  9.61525175E-04  1.79669728E-02  4.59880964E-03 -6.54996457E-04
 -5.74291426E-04 -2.52844327E-08 -1.15498803E-02 -1.17111784E-02  1.86162434E-07
 -8.30811833E-04  2.16265819E-04 -4.28486780E-08 -3.43492662E-04 -1.78123329E-08
 -2.49753931E-08 -3.96405908E-04 -6.41765960E-04 -2.95744424E-03  1.37039181E-07
  6.46126862E-08  2.73881418E-03  9.70146820E-03  1.79270140E-05 -4.17623343E-05
  2.87295677E-03  5.44763985E-03  1.61292618E-04 -7.59373530E-07 -1.29597567E-08
  2.00078457E-03 -1.15717953E-03  2.27050233E-07 -2.16838609E-03  6.50712228E-04
  4.59513000E-09 -4.87202139E-05  7.51433649E-09 -2.10554302E-08 -3.66024711E-04
 -5.89605590E-05  1.22940983E-03 -9.61297000E-09  1.79087504E-07 -5.39504143E-05
  9.62696913E-04  9.96858123E-01  2.62001885E-02 -3.06713075E-02 -1.53879906E-02
  1.56611104E-03  1.08845531E-03 -4.02450509E-08 -7.22992261E-03 -4.66657241E-03
  1.46763463E-07 -3.37426846E-03 -1.93501421E-03  5.82470482E-08  4.54706334E-05
 -5.82324564E-09 -8.16345003E-09  1.59138958E-05  1.57196945E-04  1.96240434E-04
  2.32526522E-08  2.93472973E-08 -3.73510882E-04 -1.10210394E-03  1.27191996E-04