 Entering Gaussian System, Link 0=g09
 Input=td6.com
 Output=td6.log
 Initial command:
 /home/diegoa/progs/g09/l1.exe /home/diegoa/g09scratch/Gau-24491.inp -scrdir=/home/diegoa/g09scratch/
 Default is to use a total of   4 processors:
                                4 via shared-memory
                                1 via Linda
 Entering Link 1 = /home/diegoa/progs/g09/l1.exe PID=     24493.
  
 Copyright (c) 1988,1990,1992,1993,1995,1998,2003,2009, Gaussian, Inc.
                  All Rights Reserved.
  
 This is part of the Gaussian(R) 09 program.  It is based on
 the Gaussian(R) 03 system (copyright 2003, Gaussian, Inc.),
 the Gaussian(R) 98 system (copyright 1998, Gaussian, Inc.),
 the Gaussian(R) 94 system (copyright 1995, Gaussian, Inc.),
 the Gaussian 92(TM) system (copyright 1992, Gaussian, Inc.),
 the Gaussian 90(TM) system (copyright 1990, Gaussian, Inc.),
 the Gaussian 88(TM) system (copyright 1988, Gaussian, Inc.),
 the Gaussian 86(TM) system (copyright 1986, Carnegie Mellon
 University), and the Gaussian 82(TM) system (copyright 1983,
 Carnegie Mellon University). Gaussian is a federally registered
 trademark of Gaussian, Inc.
  
 This software contains proprietary and confidential information,
 including trade secrets, belonging to Gaussian, Inc.
  
 This software is provided under written license and may be
 used, copied, transmitted, or stored only in accord with that
 written license.
  
 The following legend is applicable only to US Government
 contracts under FAR:
  
                    RESTRICTED RIGHTS LEGEND
  
 Use, reproduction and disclosure by the US Government is
 subject to restrictions as set forth in subparagraphs (a)
 and (c) of the Commercial Computer Software - Restricted
 Rights clause in FAR 52.227-19.
  
 Gaussian, Inc.
 340 Quinnipiac St., Bldg. 40, Wallingford CT 06492
  
  
 ---------------------------------------------------------------
 Warning -- This program may not be used in any manner that
 competes with the business of Gaussian, Inc. or will provide
 assistance to any competitor of Gaussian, Inc.  The licensee
 of this program is prohibited from giving any competitor of
 Gaussian, Inc. access to this program.  By using this program,
 the user acknowledges that Gaussian, Inc. is engaged in the
 business of creating and licensing software in the field of
 computational chemistry and represents and warrants to the
 licensee that it is not a competitor of Gaussian, Inc. and that
 it will not use this program in any manner prohibited above.
 ---------------------------------------------------------------
  

 Cite this work as:
 Gaussian 09, Revision A.01,
 M. J. Frisch, G. W. Trucks, H. B. Schlegel, G. E. Scuseria, 
 M. A. Robb, J. R. Cheeseman, G. Scalmani, V. Barone, B. Mennucci, 
 G. A. Petersson, H. Nakatsuji, M. Caricato, X. Li, H. P. Hratchian, 
 A. F. Izmaylov, J. Bloino, G. Zheng, J. L. Sonnenberg, M. Hada, 
 M. Ehara, K. Toyota, R. Fukuda, J. Hasegawa, M. Ishida, T. Nakajima, 
 Y. Honda, O. Kitao, H. Nakai, T. Vreven, J. A. Montgomery, Jr., 
 J. E. Peralta, F. Ogliaro, M. Bearpark, J. J. Heyd, E. Brothers, 
 K. N. Kudin, V. N. Staroverov, R. Kobayashi, J. Normand, 
 K. Raghavachari, A. Rendell, J. C. Burant, S. S. Iyengar, J. Tomasi, 
 M. Cossi, N. Rega, J. M. Millam, M. Klene, J. E. Knox, J. B. Cross, 
 V. Bakken, C. Adamo, J. Jaramillo, R. Gomperts, R. E. Stratmann, 
 O. Yazyev, A. J. Austin, R. Cammi, C. Pomelli, J. W. Ochterski, 
 R. L. Martin, K. Morokuma, V. G. Zakrzewski, G. A. Voth, 
 P. Salvador, J. J. Dannenberg, S. Dapprich, A. D. Daniels, 
 O. Farkas, J. B. Foresman, J. V. Ortiz, J. Cioslowski, 
 and D. J. Fox, Gaussian, Inc., Wallingford CT, 2009.
 
 ******************************************
 Gaussian 09:  EM64L-G09RevA.01  8-May-2009
                28-Oct-2019 
 ******************************************
 %chk=td6.chk
 %NProcShared=4
 Will use up to    4 processors via shared memory.
 Default route:  MP2=Direct MaxDisk=1000GB DenFit
 ----------------------------------------------------------------------
 # cam-b3lyp/aug-cc-pvdz force nosymm td(root=6,nstates=20,NonEqSolv) S
 CRF=PCM int=(grid=ultrafine)
 ----------------------------------------------------------------------
 1/10=7,30=1,38=1/1,3;
 2/12=2,15=1,17=6,18=5,40=1/2;
 3/5=16,7=10,11=2,16=1,25=1,30=1,70=2201,71=1,72=1,74=-40,75=-5,82=47/1,2,8,3;
 4//1;
 5/5=2,38=5/2;
 8/6=1,10=1,107=6,108=20/1;
 9/8=6,15=2,41=20,42=1,73=1/14;
 10/5=4,31=1/2;
 6/7=2,8=2,9=2,10=2,18=1,85=1/1;
 7/12=6,13=5,14=6,29=1,30=1/1,2,3,16;
 1/10=7,30=1/3;
 99//99;
 -----
 Title
 -----
 Symbolic Z-matrix:
 Charge =  0 Multiplicity = 1
 6                    -0.14841   0.38941  -0.00001 
 7                     1.07589  -0.16092   0.00006 
 8                    -1.19901  -0.24437  -0.00008 
 1                     1.18201  -1.16665   0.00009 
 1                     1.90298   0.41696   0.00015 
 1                    -0.13369   1.49466  -0.00001 
 

 GradGradGradGradGradGradGradGradGradGradGradGradGradGradGradGradGradGrad
 Berny optimization.
 Initialization pass.
 Trust Radius=3.00D-01 FncErr=1.00D-07 GrdErr=1.00D-07
 Number of steps in this run=   2 maximum allowed number of steps=   2.
 GradGradGradGradGradGradGradGradGradGradGradGradGradGradGradGradGradGrad

                          Input orientation:                          
 ---------------------------------------------------------------------
 Center     Atomic      Atomic             Coordinates (Angstroms)
 Number     Number       Type             X           Y           Z
 ---------------------------------------------------------------------
      1          6           0       -0.148406    0.389411   -0.000008
      2          7           0        1.075890   -0.160923    0.000060
      3          8           0       -1.199011   -0.244372   -0.000076
      4          1           0        1.182007   -1.166648    0.000092
      5          1           0        1.902982    0.416959    0.000154
      6          1           0       -0.133692    1.494659   -0.000005
 ---------------------------------------------------------------------
                    Distance matrix (angstroms):
                    1          2          3          4          5
     1  C    0.000000
     2  N    1.342300   0.000000
     3  O    1.226969   2.276431   0.000000
     4  H    2.047271   1.011308   2.553398   0.000000
     5  H    2.051573   1.008974   3.171706   1.740005   0.000000
     6  H    1.105346   2.050376   2.039395   2.968774   2.304231
                    6
     6  H    0.000000
 Symmetry turned off by external request.
 Stoichiometry    CH3NO
 Framework group  C1[X(CH3NO)]
 Deg. of freedom    12
 Full point group                 C1      NOp   1
 Rotational constants (GHZ):     73.1415518     11.3903967      9.8555789
 Standard basis: Aug-CC-pVDZ (5D, 7F)
 Integral buffers will be    131072 words long.
 Raffenetti 2 integral format.
 Two-electron integral symmetry is turned off.
    96 basis functions,   162 primitive gaussians,   102 cartesian basis functions
    12 alpha electrons       12 beta electrons
       nuclear repulsion energy        71.1695258840 Hartrees.
 NAtoms=    6 NActive=    6 NUniq=    6 SFac= 7.50D-01 NAtFMM=   80 NAOKFM=F Big=F
 Standard density basis: Auto (5D, 7F)
   327 Density fitting functions
 ------------------------------------------------------------------------------
 Polarizable Continuum Model (PCM)
 =================================
 Model                : PCM.
 Atomic radii         : UFF (Universal Force Field).
 Polarization charges : Total charges.
 Charge compensation  : None.
 Solution method      : Matrix inversion.
 Cavity type          : Scaled VdW (van der Waals Surface) (Alpha=1.100).
 Cavity algorithm     : GePol (No added spheres)
                        Default sphere list used, NSphG=    6.
                        Lebedev-Laikov grids with approx.  5.0 points / Ang**2.
                        Smoothing algorithm: Karplus/York (Gamma=1.0000).
                        Polarization charges: spherical gaussians, with
                                              point-specific exponents (IZeta= 3).
                        Self-potential: point-specific (ISelfS= 7).
                        Self-field    : sphere-specific E.n sum rule (ISelfD= 2).
 1st derivatives      : Analytical E(r).r(x)/FMM algorithm (CHGder, D1EAlg=3).
                        Cavity 1st derivative terms included.
 Solvent              : Water, Eps=  78.355300 Eps(inf)=   1.777849
 ------------------------------------------------------------------------------
 Spheres list:
 ISph  on   Nord    Re0     Alpha      Xe            Ye            Ze
    1   C      1    1.926   1.100     -0.148406      0.389411     -0.000008
    2   N      2    1.830   1.100      1.075890     -0.160923      0.000060
    3   O      3    1.750   1.100     -1.199011     -0.244372     -0.000076
    4   H      4    1.443   1.100      1.182007     -1.166648      0.000092
    5   H      5    1.443   1.100      1.902982      0.416959      0.000154
    6   H      6    1.443   1.100     -0.133692      1.494659     -0.000005
 ------------------------------------------------------------------------------
 One-electron integrals computed using PRISM.
 NBasis=    96 RedAO= T  NBF=    96
 NBsUse=    96 1.00D-06 NBFU=    96
 Harris functional with IExCor=20419 diagonalized for initial guess.
 ExpMin= 2.97D-02 ExpMax= 1.17D+04 ExpMxC= 4.01D+02 IAcc=3 IRadAn=         5 AccDes= 0.00D+00
 HarFok:  IExCor=20419 AccDes= 0.00D+00 IRadAn=         5 IDoV= 1
 ScaDFX=  1.000000  1.000000  1.000000  1.000000
 FoFCou: FMM=F IPFlag=           0 FMFlag=      100000 FMFlg1=           0
         NFxFlg=           0 DoJE=T BraDBF=F KetDBF=T FulRan=T
         Omega=  0.000000  0.000000  1.000000  0.000000  0.000000 ICntrl=     500 IOpCl=  0
         NMat0=    1 NMatS0=    1 NMatT0=    0 NMatD0=    1 NMtDS0=    0 NMtDT0=    0
         I1Cent=           4 NGrid=           0.
 Symmetry not used in FoFCou.
 Requested convergence on RMS density matrix=1.00D-08 within 128 cycles.
 Requested convergence on MAX density matrix=1.00D-06.
 Requested convergence on             energy=1.00D-06.
 No special actions if energy rises.
 FoFJK:  IHMeth= 1 ICntrl=     0 DoSepK=T KAlg= 1 I1Cent= 0 FoldK=F
 FoFJK:  IHMeth= 1 ICntrl=     0 DoSepK=T KAlg= 1 I1Cent= 0 FoldK=F
 FoFJK:  IHMeth= 1 ICntrl=     0 DoSepK=T KAlg= 1 I1Cent= 0 FoldK=F
 FoFJK:  IHMeth= 1 ICntrl=     0 DoSepK=T KAlg= 1 I1Cent= 0 FoldK=F
 FoFJK:  IHMeth= 1 ICntrl=     0 DoSepK=T KAlg= 1 I1Cent= 0 FoldK=F
 FoFJK:  IHMeth= 1 ICntrl=     0 DoSepK=T KAlg= 1 I1Cent= 0 FoldK=F
 FoFJK:  IHMeth= 1 ICntrl=     0 DoSepK=T KAlg= 1 I1Cent= 0 FoldK=F
 FoFJK:  IHMeth= 1 ICntrl=     0 DoSepK=T KAlg= 1 I1Cent= 0 FoldK=F
 FoFJK:  IHMeth= 1 ICntrl=     0 DoSepK=T KAlg= 1 I1Cent= 0 FoldK=F
 FoFJK:  IHMeth= 1 ICntrl=     0 DoSepK=T KAlg= 1 I1Cent= 0 FoldK=F
 FoFJK:  IHMeth= 1 ICntrl=     0 DoSepK=T KAlg= 1 I1Cent= 0 FoldK=F
 Error on total polarization charges =  0.01050
 SCF Done:  E(RCAM-B3LYP) =  -169.864201704     A.U. after   11 cycles
             Convg  =    0.4600D-08             -V/T =  2.0064
 ExpMin= 2.97D-02 ExpMax= 1.17D+04 ExpMxC= 4.01D+02 IAcc=3 IRadAn=         5 AccDes= 0.00D+00
 HarFok:  IExCor=  205 AccDes= 0.00D+00 IRadAn=         5 IDoV=-2
 ScaDFX=  1.000000  1.000000  1.000000  1.000000
 Range of M.O.s used for correlation:     4    96
 NBasis=    96 NAE=    12 NBE=    12 NFC=     3 NFV=     0
 NROrb=     93 NOA=     9 NOB=     9 NVA=    84 NVB=    84

 **** Warning!!: The largest alpha MO coefficient is  0.18832976D+02

 NEqPCM:  Using non-equilibrium solvation (IEInf=1, Eps=  78.3553, EpsInf=   1.7778)
    80 initial guesses have been made.
 Convergence on wavefunction:    0.000001000000000
 Iteration     1 Dimension    80 NMult    80
 CISAX will form    80 AO SS matrices at one time.
 FoFJK:  IHMeth= 1 ICntrl=     0 DoSepK=T KAlg= 1 I1Cent= 0 FoldK=F
 FoFJK:  IHMeth= 1 ICntrl=     0 DoSepK=T KAlg= 1 I1Cent= 0 FoldK=F
 New state      1 was old state      6
 New state      2 was old state      1
 New state      3 was old state      2
 New state      4 was old state      3
 New state      5 was old state      4
 New state      6 was old state      5
 New state      8 was old state     11
 New state     10 was old state      8
 New state     11 was old state     10
 New state     13 was old state     14
 New state     14 was old state     13
 No map to state     17
 New state     20 was old state     17
 Iteration     2 Dimension   120 NMult   120
 FoFJK:  IHMeth= 1 ICntrl=     0 DoSepK=T KAlg= 1 I1Cent= 0 FoldK=F
 FoFJK:  IHMeth= 1 ICntrl=     0 DoSepK=T KAlg= 1 I1Cent= 0 FoldK=F
 New state      5 was old state      6
 New state      6 was old state      5
 New state      7 was old state      8
 New state      8 was old state      7
 New state     13 was old state     14
 New state     14 was old state     13
 New state     16 was old state     17
 New state     17 was old state     16
 Iteration     3 Dimension   160 NMult   160
 FoFJK:  IHMeth= 1 ICntrl=     0 DoSepK=T KAlg= 1 I1Cent= 0 FoldK=F
 FoFJK:  IHMeth= 1 ICntrl=     0 DoSepK=T KAlg= 1 I1Cent= 0 FoldK=F
 Iteration     4 Dimension   200 NMult   200
 FoFJK:  IHMeth= 1 ICntrl=     0 DoSepK=T KAlg= 1 I1Cent= 0 FoldK=F
 FoFJK:  IHMeth= 1 ICntrl=     0 DoSepK=T KAlg= 1 I1Cent= 0 FoldK=F
 Iteration     5 Dimension   240 NMult   240
 FoFJK:  IHMeth= 1 ICntrl=     0 DoSepK=T KAlg= 1 I1Cent= 0 FoldK=F
 FoFJK:  IHMeth= 1 ICntrl=     0 DoSepK=T KAlg= 1 I1Cent= 0 FoldK=F
 Iteration     6 Dimension   280 NMult   280
 FoFJK:  IHMeth= 1 ICntrl=     0 DoSepK=T KAlg= 1 I1Cent= 0 FoldK=F
 FoFJK:  IHMeth= 1 ICntrl=     0 DoSepK=T KAlg= 1 I1Cent= 0 FoldK=F
 Iteration     7 Dimension   308 NMult   308
 FoFJK:  IHMeth= 1 ICntrl=     0 DoSepK=T KAlg= 1 I1Cent= 0 FoldK=F
 FoFJK:  IHMeth= 1 ICntrl=     0 DoSepK=T KAlg= 1 I1Cent= 0 FoldK=F
 Iteration     8 Dimension   312 NMult   312
 FoFJK:  IHMeth= 1 ICntrl=     0 DoSepK=T KAlg= 1 I1Cent= 0 FoldK=F
 FoFJK:  IHMeth= 1 ICntrl=     0 DoSepK=T KAlg= 1 I1Cent= 0 FoldK=F
 Iteration     9 Dimension   314 NMult   314
 FoFJK:  IHMeth= 1 ICntrl=     0 DoSepK=T KAlg= 1 I1Cent= 0 FoldK=F
 FoFJK:  IHMeth= 1 ICntrl=     0 DoSepK=T KAlg= 1 I1Cent= 0 FoldK=F
 ***********************************************************************
 Excited states from <AA,BB:AA,BB> singles matrix:
 ***********************************************************************
 
 Ground to excited state transition electric dipole moments (Au):
       state          X           Y           Z        Dip. S.      Osc.
         1         0.0000      0.0000      0.0705      0.0050      0.0007
         2        -0.0183      0.1214      0.0000      0.0151      0.0026
         3         0.0000      0.0000      0.2587      0.0669      0.0116
         4         1.0554      0.0960      0.0001      1.1231      0.2048
         5        -0.4171      0.7417      0.0000      0.7241      0.1372
         6         0.0001     -0.0002      0.0536      0.0029      0.0005
         7         0.8042      0.1933     -0.0008      0.6840      0.1350
         8        -0.0018     -0.0004     -0.3848      0.1480      0.0292
         9         0.0000      0.0000      0.1720      0.0296      0.0061
        10        -0.1782     -0.0458      0.0000      0.0339      0.0072
        11         0.1112     -0.1132      0.0000      0.0252      0.0056
        12         0.0000      0.0000      0.1628      0.0265      0.0059
        13        -0.0741     -0.0089     -0.0001      0.0056      0.0013
        14         0.0000      0.0000     -0.1817      0.0330      0.0076
        15         0.1543      0.0439      0.0000      0.0257      0.0063
        16         0.0000      0.0000     -0.0577      0.0033      0.0008
        17         0.0000      0.0000     -0.1337      0.0179      0.0045
        18         0.0000     -0.0001     -0.0926      0.0086      0.0022
        19         0.0001      0.0003      0.1545      0.0239      0.0062
        20        -0.1397     -0.2796      0.0002      0.0977      0.0253
 Ground to excited state transition velocity dipole moments (Au):
       state          X           Y           Z        Dip. S.      Osc.
         1         0.0000      0.0000     -0.0185      0.0003      0.0011
         2         0.0064     -0.0326      0.0000      0.0011      0.0029
         3         0.0000      0.0000     -0.0649      0.0042      0.0108
         4        -0.2837     -0.0250      0.0000      0.0811      0.1977
         5         0.1178     -0.2077      0.0000      0.0570      0.1338
         6         0.0000      0.0000     -0.0160      0.0003      0.0006
         7        -0.2358     -0.0561      0.0002      0.0588      0.1323
         8         0.0005      0.0001      0.1105      0.0122      0.0275
         9         0.0000      0.0000     -0.0545      0.0030      0.0064
        10         0.0477      0.0122      0.0000      0.0024      0.0051
        11        -0.0347      0.0360      0.0000      0.0025      0.0050
        12         0.0000      0.0000     -0.0522      0.0027      0.0054
        13         0.0150      0.0022      0.0000      0.0002      0.0004
        14         0.0000      0.0000      0.0632      0.0040      0.0077
        15        -0.0559     -0.0093      0.0000      0.0032      0.0058
        16         0.0000      0.0000      0.0230      0.0005      0.0009
        17         0.0000      0.0000      0.0552      0.0031      0.0054
        18         0.0000      0.0000      0.0251      0.0006      0.0011
        19        -0.0001     -0.0001     -0.0583      0.0034      0.0059
        20         0.0505      0.1101     -0.0001      0.0147      0.0252
 Ground to excited state transition magnetic dipole moments (Au):
       state          X           Y           Z
         1        -0.9710     -0.3888     -0.0001
         2         0.0000      0.0001      0.5167
         3         0.0072      0.5408     -0.0001
         4         0.0000      0.0000      0.1869
         5         0.0000      0.0000     -0.1189
         6         0.0394     -0.0042      0.0000
         7        -0.0001      0.0007      0.5441
         8        -0.0382      0.3261     -0.0012
         9        -0.0590      0.1064      0.0000
        10         0.0000      0.0000      0.0711
        11         0.0000      0.0000     -0.0055
        12         0.1009     -0.2385      0.0000
        13         0.0000     -0.0001      0.1960
        14        -0.0843     -0.5201     -0.0001
        15         0.0000      0.0000     -0.3703
        16        -0.9747      0.8156      0.0000
        17         0.2419     -0.6160      0.0000
        18         0.1823     -0.5438      0.0000
        19         0.0073     -0.0949      0.0000
        20         0.0000      0.0000     -0.0058
 <0|del|b> * <b|rxdel|0> + <0|del|b> * <b|delr+rdel|0>
 Rotatory Strengths (R) in cgs (10**-40 erg-esu-cm/Gauss)
       state          XX          YY          ZZ    R(velocity)
         1         0.0010      0.0040      0.0011      0.0020
 Total R(velocity) tensor for State=          1
                 1             2             3 
      1   0.102568D-02 -0.785014D-03  0.000000D+00
      2   0.864704D-03  0.395603D-02  0.000000D+00
      3  -0.255352D+02 -0.115631D+02  0.107804D-02
         2        -0.0205     -0.0039     -0.0004     -0.0083
 Total R(velocity) tensor for State=          2
                 1             2             3 
      1  -0.205343D-01 -0.540858D-02  0.409979D+01
      2  -0.614188D-02 -0.387572D-02  0.805765D+01
      3   0.380283D+01  0.750680D+00 -0.439121D-03
         3         0.0222      0.0045      0.0007      0.0091
 Total R(velocity) tensor for State=          3
                 1             2             3 
      1   0.221844D-01  0.397782D-02  0.193946D-05
      2   0.690389D-02  0.449310D-02  0.000000D+00
      3  -0.148491D+01  0.832356D+01  0.726061D-03
         4        -0.0045     -0.0071      0.0012     -0.0035
 Total R(velocity) tensor for State=          4
                 1             2             3 
      1  -0.452468D-02 -0.139981D-01  0.104099D+03
      2   0.289448D-02 -0.714098D-02 -0.409585D+02
      3  -0.127807D+01  0.145088D+02  0.120794D-02
         5        -0.0031      0.0031     -0.0032     -0.0011
 Total R(velocity) tensor for State=          5
                 1             2             3 
      1  -0.312915D-02 -0.156618D-02  0.104757D+02
      2   0.444481D-02  0.312327D-02  0.302462D+02
      3   0.175876D+02  0.997526D+01 -0.321402D-02
         6        -0.0028     -0.0032      0.0025     -0.0012
 Total R(velocity) tensor for State=          6
                 1             2             3 
      1  -0.276919D-02 -0.133726D-02  0.000000D+00
      2  -0.877918D-02 -0.321472D-02  0.000000D+00
      3  -0.116057D+01  0.408003D+00  0.248618D-02
         7         0.1432      0.1232      0.0048      0.0904
 Total R(velocity) tensor for State=          7
                 1             2             3 
      1   0.143223D+00  0.385587D+00  0.237928D+03
      2  -0.460771D-01  0.123152D+00 -0.169730D+02
      3  -0.544174D+01  0.228623D+02  0.477842D-02
         8        -0.1559     -0.1227      0.0104     -0.0894
 Total R(velocity) tensor for State=          8
                 1             2             3 
      1  -0.155912D+00 -0.381122D+00  0.118339D-02
      2   0.475974D-01 -0.122682D+00 -0.789475D-04
      3   0.502447D+01 -0.288370D+02  0.104296D-01
         9         0.0014      0.0000     -0.0007      0.0002
 Total R(velocity) tensor for State=          9
                 1             2             3 
      1   0.138828D-02 -0.160008D-02  0.000000D+00
      2  -0.548900D-03  0.000000D+00  0.000000D+00
      3  -0.330846D+01 -0.240436D+00 -0.731261D-03
        10         0.0000      0.0006     -0.0002      0.0001
 Total R(velocity) tensor for State=         10
                 1             2             3 
      1   0.416699D-04 -0.733677D-03 -0.958441D+01
      2  -0.178991D-03  0.603673D-03 -0.166197D+01
      3  -0.218474D+01  0.857505D+01 -0.225944D-03
        11        -0.0004     -0.0040     -0.0007     -0.0017
 Total R(velocity) tensor for State=         11
                 1             2             3 
      1  -0.407987D-03 -0.534202D-02 -0.138561D+02
      2  -0.695623D-02 -0.399115D-02  0.758018D+01
      3   0.708143D+00  0.681921D+00 -0.669053D-03
        12         0.0004      0.0042     -0.0003      0.0014
 Total R(velocity) tensor for State=         12
                 1             2             3 
      1   0.387156D-03  0.592168D-02  0.000000D+00
      2   0.668518D-02  0.422323D-02  0.000000D+00
      3   0.350999D+00  0.283833D+01 -0.275054D-03
        13         0.0024      0.0043     -0.0011      0.0019
 Total R(velocity) tensor for State=         13
                 1             2             3 
      1   0.241800D-02  0.315819D-02 -0.250689D+01
      2  -0.260798D-02  0.427194D-02  0.171091D+01
      3   0.324259D+00 -0.217610D+01 -0.106164D-02
        14        -0.0023     -0.0039      0.0016     -0.0015
 Total R(velocity) tensor for State=         14
                 1             2             3 
      1  -0.231202D-02 -0.227494D-02  0.000000D+00
      2   0.200905D-02 -0.388456D-02  0.000000D+00
      3   0.141649D+02  0.284139D+02  0.161326D-02
        15         0.0004     -0.0005     -0.0011     -0.0004
 Total R(velocity) tensor for State=         15
                 1             2             3 
      1   0.361370D-03 -0.222371D-02 -0.136303D+02
      2   0.890978D-04 -0.497830D-03  0.866406D+01
      3  -0.823723D+00  0.493851D+01 -0.111140D-02
        16        -0.0027      0.0014     -0.0002     -0.0005
 Total R(velocity) tensor for State=         16
                 1             2             3 
      1  -0.269356D-02  0.182961D-02  0.000000D+00
      2  -0.287284D-02  0.143583D-02  0.000000D+00
      3   0.139834D+02 -0.153918D+02 -0.169056D-03
        17        -0.0004      0.0009     -0.0026     -0.0007
 Total R(velocity) tensor for State=         17
                 1             2             3 
      1  -0.400567D-03 -0.182888D-02  0.000000D+00
      2  -0.109664D-02  0.947503D-03  0.000000D+00
      3  -0.189859D+02  0.132238D+02 -0.258454D-02
        18        -0.0150      0.0007     -0.0030     -0.0058
 Total R(velocity) tensor for State=         18
                 1             2             3 
      1  -0.149749D-01  0.138995D-01 -0.237149D-05
      2   0.127126D-02  0.708436D-03 -0.157734D-05
      3  -0.657973D+01  0.818418D+01 -0.299826D-02
        19         0.0128     -0.0106      0.0192      0.0071
 Total R(velocity) tensor for State=         19
                 1             2             3 
      1   0.127554D-01  0.160332D-01 -0.469687D-04
      2   0.406609D-01 -0.106138D-01 -0.127720D-04
      3  -0.262429D+00 -0.853280D+01  0.191670D-01
        20         0.0018      0.0117     -0.0132      0.0001
 Total R(velocity) tensor for State=         20
                 1             2             3 
      1   0.181839D-02 -0.205562D-01 -0.301861D+02
      2  -0.428700D-01  0.116619D-01 -0.122745D+02
      3   0.329188D+02 -0.151126D+02 -0.131633D-01
 1/2[<0|r|b>*<b|rxdel|0> + (<0|rxdel|b>*<b|r|0>)*]
 Rotatory Strengths (R) in cgs (10**-40 erg-esu-cm/Gauss)
       state          XX          YY          ZZ     R(length)     R(au)
         1         0.0044     -0.0007      0.0028      0.0021      0.0000
         2        -0.0003     -0.0088     -0.0161     -0.0084      0.0000
         3         0.0001      0.0091      0.0185      0.0092      0.0000
         4        -0.0041      0.0012     -0.0077     -0.0035      0.0000
         5         0.0029     -0.0049     -0.0013     -0.0011      0.0000
         6        -0.0017     -0.0005     -0.0012     -0.0012      0.0000
         7         0.0676     -0.1004      0.3129      0.0934      0.0002
         8        -0.0478      0.1035     -0.3326     -0.0923     -0.0002
         9        -0.0017      0.0004      0.0018      0.0002      0.0000
        10         0.0006      0.0000     -0.0001      0.0002      0.0000
        11        -0.0015     -0.0040      0.0002     -0.0018      0.0000
        12         0.0025      0.0035     -0.0014      0.0015      0.0000
        13        -0.0013     -0.0008      0.0072      0.0017      0.0000
        14         0.0009      0.0023     -0.0072     -0.0013      0.0000
        15        -0.0014      0.0003      0.0001     -0.0003      0.0000
        16         0.0038     -0.0035     -0.0019     -0.0005      0.0000
        17        -0.0022     -0.0038      0.0035     -0.0008      0.0000
        18         0.0059     -0.0232      0.0004     -0.0056      0.0000
        19        -0.0007      0.0221     -0.0004      0.0070      0.0000
        20        -0.0019      0.0013      0.0008      0.0001      0.0000
  1/2[<0|del|b>*<b|r|0> + (<0|r|b>*<b|del|0>)*] (Au)
       state          X           Y           Z        Dip. S.   Osc.(frdel)
         1         0.0000      0.0000     -0.0013      0.0013      0.0009
         2        -0.0001     -0.0040      0.0000      0.0041      0.0027
         3         0.0000      0.0000     -0.0168      0.0168      0.0112
         4        -0.2994     -0.0024      0.0000      0.3018      0.2012
         5        -0.0491     -0.1541      0.0000      0.2032      0.1355
         6         0.0000      0.0000     -0.0009      0.0009      0.0006
         7        -0.1896     -0.0108      0.0000      0.2005      0.1337
         8         0.0000      0.0000     -0.0425      0.0425      0.0283
         9         0.0000      0.0000     -0.0094      0.0094      0.0063
        10        -0.0085     -0.0006      0.0000      0.0091      0.0060
        11        -0.0039     -0.0041      0.0000      0.0079      0.0053
        12         0.0000      0.0000     -0.0085      0.0085      0.0057
        13        -0.0011      0.0000      0.0000      0.0011      0.0008
        14         0.0000      0.0000     -0.0115      0.0115      0.0077
        15        -0.0086     -0.0004      0.0000      0.0090      0.0060
        16         0.0000      0.0000     -0.0013      0.0013      0.0009
        17         0.0000      0.0000     -0.0074      0.0074      0.0049
        18         0.0000      0.0000     -0.0023      0.0023      0.0015
        19         0.0000      0.0000     -0.0090      0.0090      0.0060
        20        -0.0071     -0.0308      0.0000      0.0378      0.0252
 Ground to excited state transition densities written to RWF  633

 Excitation energies and oscillator strengths:
 
 Excited state symmetry could not be determined.
 Excited State   1:      Singlet-?Sym    5.7717 eV  214.81 nm  f=0.0007  <S**2>=0.000
      12 -> 16         0.67171
      12 -> 17        -0.19843
 
 Excited state symmetry could not be determined.
 Excited State   2:      Singlet-?Sym    7.0116 eV  176.83 nm  f=0.0026  <S**2>=0.000
      11 -> 16         0.18758
      12 -> 13         0.59352
      12 -> 14        -0.10086
      12 -> 15         0.24183
      12 -> 18        -0.11513
      12 -> 20        -0.11358
 
 Excited state symmetry could not be determined.
 Excited State   3:      Singlet-?Sym    7.0883 eV  174.91 nm  f=0.0116  <S**2>=0.000
      11 -> 13         0.66713
      11 -> 14         0.10264
      11 -> 19        -0.12844
      11 -> 20        -0.12916
 
 Excited state symmetry could not be determined.
 Excited State   4:      Singlet-?Sym    7.4425 eV  166.59 nm  f=0.2048  <S**2>=0.000
      11 -> 16         0.51200
      11 -> 17        -0.21242
      12 -> 14         0.34385
      12 -> 15        -0.16080
      12 -> 18         0.11090
      12 -> 19        -0.12879
 
 Excited state symmetry could not be determined.
 Excited State   5:      Singlet-?Sym    7.7327 eV  160.34 nm  f=0.1372  <S**2>=0.000
      11 -> 16        -0.22740
      11 -> 17         0.11607
      12 -> 14         0.54177
      12 -> 15         0.29643
      12 -> 18        -0.14000
      12 -> 19        -0.10817
 
 Excited state symmetry could not be determined.
 Excited State   6:      Singlet-?Sym    7.7938 eV  159.08 nm  f=0.0005  <S**2>=0.000
      11 -> 13        -0.10674
      11 -> 14         0.63771
      11 -> 15         0.19026
      11 -> 21        -0.15140
 This state for optimization and/or second-order correction.
 Copying the excited state density for this state as the 1-particle RhoCI density.
 
 Excited state symmetry could not be determined.
 Excited State   7:      Singlet-?Sym    8.0559 eV  153.90 nm  f=0.1350  <S**2>=0.000
      11 -> 16         0.22564
      11 -> 17        -0.12881
      12 -> 13        -0.34534
      12 -> 14        -0.16503
      12 -> 15         0.47688
      12 -> 18        -0.20966
 
 Excited state symmetry could not be determined.
 Excited State   8:      Singlet-?Sym    8.0613 eV  153.80 nm  f=0.0292  <S**2>=0.000
      11 -> 14        -0.18443
      11 -> 15         0.64143
      11 -> 18        -0.15756
      11 -> 23        -0.10720
 
 Excited state symmetry could not be determined.
 Excited State   9:      Singlet-?Sym    8.3955 eV  147.68 nm  f=0.0061  <S**2>=0.000
      12 -> 16         0.19345
      12 -> 17         0.67007
 
 Excited state symmetry could not be determined.
 Excited State  10:      Singlet-?Sym    8.6921 eV  142.64 nm  f=0.0072  <S**2>=0.000
      11 -> 16         0.27915
      11 -> 17         0.64073
 
 Excited state symmetry could not be determined.
 Excited State  11:      Singlet-?Sym    9.0454 eV  137.07 nm  f=0.0056  <S**2>=0.000
      12 -> 15         0.28947
      12 -> 18         0.61503
      12 -> 19         0.12816
 
 Excited state symmetry could not be determined.
 Excited State  12:      Singlet-?Sym    9.1250 eV  135.87 nm  f=0.0059  <S**2>=0.000
      11 -> 15         0.12828
      11 -> 18         0.65888
      11 -> 24         0.14537
 
 Excited state symmetry could not be determined.
 Excited State  13:      Singlet-?Sym    9.3287 eV  132.91 nm  f=0.0013  <S**2>=0.000
      12 -> 14         0.14605
      12 -> 18        -0.11226
      12 -> 19         0.64904
      12 -> 21        -0.10209
 
 Excited state symmetry could not be determined.
 Excited State  14:      Singlet-?Sym    9.3993 eV  131.91 nm  f=0.0076  <S**2>=0.000
      11 -> 13         0.11202
      11 -> 19         0.67208
 
 Excited state symmetry could not be determined.
 Excited State  15:      Singlet-?Sym    9.9859 eV  124.16 nm  f=0.0063  <S**2>=0.000
      12 -> 13         0.10037
      12 -> 14        -0.10506
      12 -> 20         0.57734
      12 -> 23         0.32655
      12 -> 24         0.11032
 
 Excited state symmetry could not be determined.
 Excited State  16:      Singlet-?Sym   10.1635 eV  121.99 nm  f=0.0008  <S**2>=0.000
       9 -> 16         0.64803
       9 -> 17        -0.18785
      11 -> 20         0.10783
      11 -> 23         0.11739
 
 Excited state symmetry could not be determined.
 Excited State  17:      Singlet-?Sym   10.2649 eV  120.78 nm  f=0.0045  <S**2>=0.000
       9 -> 16        -0.13162
      11 -> 13         0.14359
      11 -> 20         0.62855
      11 -> 21         0.16595
      11 -> 23         0.11720
 
 Excited state symmetry could not be determined.
 Excited State  18:      Singlet-?Sym   10.4947 eV  118.14 nm  f=0.0022  <S**2>=0.000
       9 -> 16        -0.10903
      11 -> 20        -0.12106
      11 -> 23         0.57657
      11 -> 24         0.23624
      11 -> 26        -0.12728
      12 -> 22         0.15726
 
 Excited state symmetry could not be determined.
 Excited State  19:      Singlet-?Sym   10.5406 eV  117.63 nm  f=0.0062  <S**2>=0.000
      11 -> 14        -0.12446
      11 -> 20         0.12566
      11 -> 21        -0.37497
      11 -> 23        -0.11865
      12 -> 22         0.52557
      12 -> 25        -0.11721
 
 Excited state symmetry could not be determined.
 Excited State  20:      Singlet-?Sym   10.5535 eV  117.48 nm  f=0.0253  <S**2>=0.000
      10 -> 16        -0.13150
      11 -> 22        -0.16959
      12 -> 14         0.10280
      12 -> 20        -0.21128
      12 -> 21         0.41498
      12 -> 23         0.39681
      12 -> 24         0.20550
 SavETr:  write IOETrn=   770 NScale= 10 NData=  16 NLR=1 LETran=     370.
 FoFJK:  IHMeth= 1 ICntrl=     0 DoSepK=T KAlg= 1 I1Cent= 0 FoldK=F
 FoFJK:  IHMeth= 1 ICntrl=     0 DoSepK=T KAlg= 1 I1Cent= 0 FoldK=F
          IDoAtm=111111
 NEqPCM:  Using equilibrium solvation (IEInf=0, Eps=  78.3553, EpsInf=   1.7778)
          Differentiating once with respect to electric field.
                with respect to dipole field.
          Differentiating once with respect to nuclear coordinates.
          There are     1 degrees of freedom in the 1st order CPHF.  IDoFFX=0.
 FoFJK:  IHMeth= 1 ICntrl=     0 DoSepK=T KAlg= 1 I1Cent= 0 FoldK=F
 LinEq1:  Iter=  0 NonCon=     1 RMS=2.70D-02 Max=2.73D-01
 AX will form     1 AO Fock derivatives at one time.
 FoFJK:  IHMeth= 1 ICntrl=     0 DoSepK=T KAlg= 1 I1Cent= 0 FoldK=F
 LinEq1:  Iter=  1 NonCon=     1 RMS=8.25D-03 Max=1.18D-01
 FoFJK:  IHMeth= 1 ICntrl=     0 DoSepK=T KAlg= 1 I1Cent= 0 FoldK=F
 LinEq1:  Iter=  2 NonCon=     1 RMS=4.93D-03 Max=3.98D-02
 FoFJK:  IHMeth= 1 ICntrl=     0 DoSepK=T KAlg= 1 I1Cent= 0 FoldK=F
 LinEq1:  Iter=  3 NonCon=     1 RMS=2.70D-03 Max=5.14D-02
 FoFJK:  IHMeth= 1 ICntrl=     0 DoSepK=T KAlg= 1 I1Cent= 0 FoldK=F
 LinEq1:  Iter=  4 NonCon=     1 RMS=1.09D-03 Max=1.14D-02
 FoFJK:  IHMeth= 1 ICntrl=     0 DoSepK=T KAlg= 1 I1Cent= 0 FoldK=F
 LinEq1:  Iter=  5 NonCon=     1 RMS=1.91D-04 Max=2.27D-03
 FoFJK:  IHMeth= 1 ICntrl=     0 DoSepK=T KAlg= 1 I1Cent= 0 FoldK=F
 LinEq1:  Iter=  6 NonCon=     1 RMS=3.35D-05 Max=2.85D-04
 FoFJK:  IHMeth= 1 ICntrl=     0 DoSepK=T KAlg= 1 I1Cent= 0 FoldK=F
 LinEq1:  Iter=  7 NonCon=     1 RMS=6.33D-06 Max=5.23D-05
 FoFJK:  IHMeth= 1 ICntrl=     0 DoSepK=T KAlg= 1 I1Cent= 0 FoldK=F
 LinEq1:  Iter=  8 NonCon=     1 RMS=1.23D-06 Max=1.20D-05
 FoFJK:  IHMeth= 1 ICntrl=     0 DoSepK=T KAlg= 1 I1Cent= 0 FoldK=F
 LinEq1:  Iter=  9 NonCon=     1 RMS=1.80D-07 Max=1.30D-06
 FoFJK:  IHMeth= 1 ICntrl=     0 DoSepK=T KAlg= 1 I1Cent= 0 FoldK=F
 LinEq1:  Iter= 10 NonCon=     1 RMS=3.77D-08 Max=3.32D-07
 FoFJK:  IHMeth= 1 ICntrl=     0 DoSepK=T KAlg= 1 I1Cent= 0 FoldK=F
 LinEq1:  Iter= 11 NonCon=     1 RMS=5.52D-09 Max=5.48D-08
 FoFJK:  IHMeth= 1 ICntrl=     0 DoSepK=T KAlg= 1 I1Cent= 0 FoldK=F
 LinEq1:  Iter= 12 NonCon=     1 RMS=1.01D-09 Max=6.57D-09
 FoFJK:  IHMeth= 1 ICntrl=     0 DoSepK=T KAlg= 1 I1Cent= 0 FoldK=F
 LinEq1:  Iter= 13 NonCon=     1 RMS=2.04D-10 Max=2.15D-09
 FoFJK:  IHMeth= 1 ICntrl=     0 DoSepK=T KAlg= 1 I1Cent= 0 FoldK=F
 LinEq1:  Iter= 14 NonCon=     0 RMS=2.70D-11 Max=2.72D-10
 Linear equations converged to 1.000D-10 1.000D-09 after    14 iterations.
 FoFJK:  IHMeth= 1 ICntrl=     0 DoSepK=T KAlg= 1 I1Cent= 0 FoldK=F
 End of Minotr Frequency-dependent properties file   721 does not exist.
 End of Minotr Frequency-dependent properties file   722 does not exist.

 **********************************************************************

            Population analysis using the SCF density.

 **********************************************************************

 Alpha  occ. eigenvalues --  -19.20592 -14.43921 -10.37654  -1.13251  -1.00140
 Alpha  occ. eigenvalues --   -0.70900  -0.63283  -0.56221  -0.49948  -0.49027
 Alpha  occ. eigenvalues --   -0.35108  -0.34314
 Alpha virt. eigenvalues --    0.01671   0.03328   0.04398   0.04944   0.07805
 Alpha virt. eigenvalues --    0.08200   0.09546   0.12744   0.14289   0.14951
 Alpha virt. eigenvalues --    0.15949   0.18128   0.20969   0.21113   0.21475
 Alpha virt. eigenvalues --    0.26157   0.27057   0.27879   0.29166   0.35807
 Alpha virt. eigenvalues --    0.35958   0.36487   0.39837   0.44236   0.45521
 Alpha virt. eigenvalues --    0.48141   0.49435   0.51473   0.54114   0.54574
 Alpha virt. eigenvalues --    0.55022   0.57584   0.58384   0.60579   0.66859
 Alpha virt. eigenvalues --    0.68992   0.72108   0.75272   0.80440   0.83460
 Alpha virt. eigenvalues --    0.86149   0.87232   0.91455   1.05604   1.07186
 Alpha virt. eigenvalues --    1.08786   1.12408   1.18207   1.22635   1.26539
 Alpha virt. eigenvalues --    1.30111   1.34930   1.42877   1.49236   1.49240
 Alpha virt. eigenvalues --    1.66239   1.69918   1.71600   1.76712   1.80636
 Alpha virt. eigenvalues --    1.83629   1.87524   2.00351   2.03408   2.05066
 Alpha virt. eigenvalues --    2.10199   2.14980   2.22047   2.22796   2.28727
 Alpha virt. eigenvalues --    2.46313   2.51524   2.55134   2.66073   2.69134
 Alpha virt. eigenvalues --    2.86876   3.02817   3.17882   3.31104   3.40263
 Alpha virt. eigenvalues --    3.45509   3.46312   3.71927   3.77736
          Condensed to atoms (all electrons):
              1          2          3          4          5          6
     1  C    4.808898   0.335984   0.326708  -0.192686  -0.131091   0.034611
     2  N    0.335984   5.856118  -0.065821   0.390049   0.349243  -0.027194
     3  O    0.326708  -0.065821   8.386466   0.001783  -0.002294  -0.092568
     4  H   -0.192686   0.390049   0.001783   1.048857  -0.216210   0.057068
     5  H   -0.131091   0.349243  -0.002294  -0.216210   1.054479  -0.010156
     6  H    0.034611  -0.027194  -0.092568   0.057068  -0.010156   1.330329
 Mulliken atomic charges:
              1
     1  C    0.817577
     2  N    0.161620
     3  O   -0.554274
     4  H   -0.088860
     5  H   -0.043972
     6  H   -0.292090
 Sum of Mulliken atomic charges =   0.00000
 Mulliken charges with hydrogens summed into heavy atoms:
              1
     1  C    0.525486
     2  N    0.028788
     3  O   -0.554274
 Sum of Mulliken charges with hydrogens summed into heavy atoms =   0.00000
 Electronic spatial extent (au):  <R**2>=            146.9405
 Charge=              0.0000 electrons
 Dipole moment (field-independent basis, Debye):
    X=              5.1238    Y=              1.2632    Z=              0.0005  Tot=              5.2772
 Quadrupole moment (field-independent basis, Debye-Ang):
   XX=            -18.5724   YY=            -15.2274   ZZ=            -19.2154
   XY=             -1.5257   XZ=              0.0002   YZ=             -0.0001
 Traceless Quadrupole moment (field-independent basis, Debye-Ang):
   XX=             -0.9007   YY=              2.4444   ZZ=             -1.5436
   XY=             -1.5257   XZ=              0.0002   YZ=             -0.0001
 Octapole moment (field-independent basis, Debye-Ang**2):
  XXX=             17.6895  YYY=             -0.6427  ZZZ=              0.0000  XYY=              3.9508
  XXY=              1.2891  XXZ=              0.0016  XZZ=             -0.7030  YZZ=              0.0247
  YYZ=              0.0003  XYZ=              0.0001
 Hexadecapole moment (field-independent basis, Debye-Ang**3):
 XXXX=           -115.0901 YYYY=            -33.8700 ZZZZ=            -19.6085 XXXY=              1.9779
 XXXZ=             -0.0015 YYYX=             -4.5769 YYYZ=             -0.0004 ZZZX=             -0.0036
 ZZZY=              0.0000 XXYY=            -24.0874 XXZZ=            -26.3725 YYZZ=            -10.2570
 XXYZ=              0.0002 YYXZ=             -0.0008 ZZXY=             -0.0017
 N-N= 7.116952588400D+01 E-N=-5.404459692202D+02  KE= 1.687833827230D+02
 D1PCM: PCM CHGder 1st derivatives, ID1Alg=3 FixD1E=F DoIter=F DoCFld=F I1PDM=6.
 Calling FoFJK, ICntrl=      5127 FMM=F ISym2X=0 I1Cent= 0 IOpClX= 0 NMat=1 NMatS=1 NMatT=0.
 FoFJK:  IHMeth= 1 ICntrl=  5127 DoSepK=T KAlg= 1 I1Cent= 0 FoldK=F
 -------------------------------------------------------------------
 Center     Atomic                   Forces (Hartrees/Bohr)
 Number     Number              X              Y              Z
 -------------------------------------------------------------------
      1        6          -0.003621270    0.017338338   -0.000000073
      2        7          -0.022885564   -0.000501188    0.000006024
      3        8           0.012089451   -0.011920311   -0.000000825
      4        1           0.005468939   -0.028368797   -0.000001914
      5        1           0.010602144    0.010045561   -0.000002835
      6        1          -0.001653701    0.013406397   -0.000000377
 -------------------------------------------------------------------
 Cartesian Forces:  Max     0.028368797 RMS     0.011441793

 GradGradGradGradGradGradGradGradGradGradGradGradGradGradGradGradGradGrad
 Berny optimization.
 Search for a local minimum.
 Step number   1 out of a maximum of    2
 All quantities printed in internal units (Hartrees-Bohrs-Radians)
 Second derivative matrix not updated -- first step.
 The second derivative matrix:
                          X1        Y1        Z1        X2        Y2
           X1           1.30250
           Y1           0.20239   0.88938
           Z1           0.00007   0.00002   0.14362
           X2          -0.49977   0.14216  -0.00002   0.98274
           Y2           0.14952  -0.25041   0.00001  -0.04082   0.90190
           Z2          -0.00002   0.00001  -0.08439   0.00007   0.00000
           X3          -0.70559  -0.35453  -0.00004  -0.00900  -0.02003
           Y3          -0.36142  -0.33593  -0.00002   0.01492   0.03320
           Z3          -0.00004  -0.00002  -0.04578   0.00000   0.00000
           X4           0.01346   0.02994   0.00000  -0.13016   0.04446
           Y4           0.00142   0.00316   0.00000   0.03454  -0.45285
           Z4           0.00000   0.00000   0.01767  -0.00001   0.00002
           X5          -0.00777  -0.01728   0.00000  -0.35619  -0.16068
           Y5           0.01112   0.02473   0.00000  -0.15064  -0.23148
           Z5           0.00000   0.00000   0.01480  -0.00004  -0.00002
           X6          -0.10283  -0.00268   0.00000   0.01238   0.02754
           Y6          -0.00304  -0.33094   0.00000  -0.00016  -0.00037
           Z6           0.00000   0.00000  -0.04592   0.00000   0.00000
                          Z2        X3        Y3        Z3        X4
           Z2           0.17504
           X3           0.00000   0.69752
           Y3           0.00000   0.37478   0.30235
           Z3           0.01454   0.00004   0.00002   0.02188
           X4          -0.00001   0.00000   0.00000   0.00000   0.09169
           Y4           0.00001   0.00000   0.00000   0.00000  -0.03860
           Z4          -0.06031   0.00000   0.00000  -0.00780   0.00001
           X5          -0.00003   0.00000   0.00000   0.00000   0.02501
           Y5          -0.00002   0.00000   0.00000   0.00000  -0.03580
           Z5          -0.05789   0.00000   0.00000   0.00787   0.00000
           X6           0.00000   0.01706  -0.02829   0.00000   0.00000
           Y6           0.00000  -0.00023   0.00038   0.00000   0.00000
           Z6           0.01302   0.00000   0.00000   0.00929   0.00000
                          Y4        Z4        X5        Y5        Z5
           Y4           0.45347
           Z4          -0.00001   0.03033
           X5           0.00264   0.00000   0.33895
           Y5          -0.00378   0.00000   0.17532   0.21052
           Z5           0.00000   0.01235   0.00003   0.00002   0.03070
           X6           0.00000   0.00000   0.00000   0.00000   0.00000
           Y6           0.00000   0.00000   0.00000   0.00000   0.00000
           Z6           0.00000   0.00776   0.00000   0.00000  -0.00783
                          X6        Y6        Z6
           X6           0.07339
           Y6           0.00343   0.33093
           Z6           0.00000   0.00000   0.02368
     Eigenvalues ---    0.02937   0.04691   0.09173   0.09210   0.15186
     Eigenvalues ---    0.19568   0.24845   0.36583   0.67454   1.12459
     Eigenvalues ---    1.45510   2.19332
 Angle between quadratic step and forces=  45.95 degrees.
 Linear search not attempted -- first point.
 TrRot=  0.016439 -0.008729  0.000005  0.003370 -0.000006  0.003370
 Variable       Old X    -DE/DX   Delta X   Delta X   Delta X     New X
                                 (Linear)    (Quad)   (Total)
    X1       -0.28045  -0.00362   0.00000  -0.00226   0.00865  -0.27180
    Y1        0.73588   0.01734   0.00000   0.08666   0.07601   0.81189
    Z1       -0.00002   0.00000   0.00000   0.00002   0.00002   0.00001
    X2        2.03314  -0.02289   0.00000  -0.04684  -0.02827   2.00487
    Y2       -0.30410  -0.00050   0.00000  -0.01901  -0.01434  -0.31844
    Z2        0.00011   0.00001   0.00000   0.00003   0.00005   0.00016
    X3       -2.26580   0.01209   0.00000   0.09269   0.11271  -2.15310
    Y3       -0.46180  -0.01192   0.00000  -0.06192  -0.08528  -0.54708
    Z3       -0.00014   0.00000   0.00000  -0.00001  -0.00002  -0.00017
    X4        2.23367   0.00547   0.00000  -0.07274  -0.04092   2.19275
    Y4       -2.20465  -0.02837   0.00000  -0.08501  -0.07913  -2.28377
    Z4        0.00017   0.00000   0.00000  -0.00002   0.00000   0.00017
    X5        3.59611   0.01060   0.00000  -0.00119   0.01006   3.60618
    Y5        0.78794   0.01005   0.00000  -0.02971  -0.01423   0.77371
    Z5        0.00029   0.00000   0.00000  -0.00007  -0.00005   0.00025
    X6       -0.25264  -0.00165   0.00000  -0.05877  -0.06223  -0.31487
    Y6        2.82450   0.01341   0.00000   0.12786   0.11697   2.94146
    Z6       -0.00001   0.00000   0.00000  -0.00001  -0.00001  -0.00001
         Item               Value     Threshold  Converged?
 Maximum Force            0.028369     0.000450     NO 
 RMS     Force            0.011442     0.000300     NO 
 Maximum Displacement     0.116966     0.001800     NO 
 RMS     Displacement     0.054070     0.001200     NO 
 Predicted change in Energy=-3.982760D-03
 GradGradGradGradGradGradGradGradGradGradGradGradGradGradGradGradGradGrad

 1\1\GINC-CLODOMIRA\Force\RTD-CAM-B3LYP-FC\Aug-CC-pVDZ\C1H3N1O1\DIEGOA\
 28-Oct-2019\0\\# cam-b3lyp/aug-cc-pvdz force nosymm td(root=6,nstates=
 20,NonEqSolv) SCRF=PCM int=(grid=ultrafine)\\Title\\0,1\C,-0.148406,0.
 389411,-0.000008\N,1.07589,-0.160923,0.00006\O,-1.199011,-0.244372,-0.
 000076\H,1.182007,-1.166648,0.000092\H,1.902982,0.416959,0.000154\H,-0
 .133692,1.494659,-0.000005\\Version=EM64L-G09RevA.01\HF=-169.8642017\R
 MSD=4.600e-09\RMSF=1.144e-02\Dipole=1.3409633,-0.6897907,0.0000468\PG=
 C01 [X(C1H3N1O1)]\\@


 THE UNDERLYING PHYSICAL LAWS NECESSARY FOR THE 
 MATHEMATICAL THEORY OF A LARGE PART OF PHYSICS AND THE
 WHOLE OF CHEMISTRY ARE THUS COMPLETELY KNOWN, AND THE
 DIFFICULTY IS ONLY THAT THE EXACT APPLICATION OF THESE
 LAWS LEADS TO EQUATIONS MUCH TOO COMPLICATED 
 TO BE SOLUBLE.

                                        -- P. A. M. DIRAC, 1929
 Job cpu time:  0 days  0 hours 13 minutes 25.1 seconds.
 File lengths (MBytes):  RWF=     53 Int=      0 D2E=      0 Chk=      8 Scr=      1
 Normal termination of Gaussian 09 at Mon Oct 28 09:10:35 2019.
