 Entering Gaussian System, Link 0=g09
 Input=td7-opt.com
 Output=td7-opt.log
 Initial command:
 /home/diegoa/progs/g09/l1.exe /home/diegoa/g09scratch/Gau-8281.inp -scrdir=/home/diegoa/g09scratch/
 Default is to use a total of   4 processors:
                                4 via shared-memory
                                1 via Linda
 Entering Link 1 = /home/diegoa/progs/g09/l1.exe PID=      8283.
  
 Copyright (c) 1988,1990,1992,1993,1995,1998,2003,2009, Gaussian, Inc.
                  All Rights Reserved.
  
 This is part of the Gaussian(R) 09 program.  It is based on
 the Gaussian(R) 03 system (copyright 2003, Gaussian, Inc.),
 the Gaussian(R) 98 system (copyright 1998, Gaussian, Inc.),
 the Gaussian(R) 94 system (copyright 1995, Gaussian, Inc.),
 the Gaussian 92(TM) system (copyright 1992, Gaussian, Inc.),
 the Gaussian 90(TM) system (copyright 1990, Gaussian, Inc.),
 the Gaussian 88(TM) system (copyright 1988, Gaussian, Inc.),
 the Gaussian 86(TM) system (copyright 1986, Carnegie Mellon
 University), and the Gaussian 82(TM) system (copyright 1983,
 Carnegie Mellon University). Gaussian is a federally registered
 trademark of Gaussian, Inc.
  
 This software contains proprietary and confidential information,
 including trade secrets, belonging to Gaussian, Inc.
  
 This software is provided under written license and may be
 used, copied, transmitted, or stored only in accord with that
 written license.
  
 The following legend is applicable only to US Government
 contracts under FAR:
  
                    RESTRICTED RIGHTS LEGEND
  
 Use, reproduction and disclosure by the US Government is
 subject to restrictions as set forth in subparagraphs (a)
 and (c) of the Commercial Computer Software - Restricted
 Rights clause in FAR 52.227-19.
  
 Gaussian, Inc.
 340 Quinnipiac St., Bldg. 40, Wallingford CT 06492
  
  
 ---------------------------------------------------------------
 Warning -- This program may not be used in any manner that
 competes with the business of Gaussian, Inc. or will provide
 assistance to any competitor of Gaussian, Inc.  The licensee
 of this program is prohibited from giving any competitor of
 Gaussian, Inc. access to this program.  By using this program,
 the user acknowledges that Gaussian, Inc. is engaged in the
 business of creating and licensing software in the field of
 computational chemistry and represents and warrants to the
 licensee that it is not a competitor of Gaussian, Inc. and that
 it will not use this program in any manner prohibited above.
 ---------------------------------------------------------------
  

 Cite this work as:
 Gaussian 09, Revision A.01,
 M. J. Frisch, G. W. Trucks, H. B. Schlegel, G. E. Scuseria, 
 M. A. Robb, J. R. Cheeseman, G. Scalmani, V. Barone, B. Mennucci, 
 G. A. Petersson, H. Nakatsuji, M. Caricato, X. Li, H. P. Hratchian, 
 A. F. Izmaylov, J. Bloino, G. Zheng, J. L. Sonnenberg, M. Hada, 
 M. Ehara, K. Toyota, R. Fukuda, J. Hasegawa, M. Ishida, T. Nakajima, 
 Y. Honda, O. Kitao, H. Nakai, T. Vreven, J. A. Montgomery, Jr., 
 J. E. Peralta, F. Ogliaro, M. Bearpark, J. J. Heyd, E. Brothers, 
 K. N. Kudin, V. N. Staroverov, R. Kobayashi, J. Normand, 
 K. Raghavachari, A. Rendell, J. C. Burant, S. S. Iyengar, J. Tomasi, 
 M. Cossi, N. Rega, J. M. Millam, M. Klene, J. E. Knox, J. B. Cross, 
 V. Bakken, C. Adamo, J. Jaramillo, R. Gomperts, R. E. Stratmann, 
 O. Yazyev, A. J. Austin, R. Cammi, C. Pomelli, J. W. Ochterski, 
 R. L. Martin, K. Morokuma, V. G. Zakrzewski, G. A. Voth, 
 P. Salvador, J. J. Dannenberg, S. Dapprich, A. D. Daniels, 
 O. Farkas, J. B. Foresman, J. V. Ortiz, J. Cioslowski, 
 and D. J. Fox, Gaussian, Inc., Wallingford CT, 2009.
 
 ******************************************
 Gaussian 09:  EM64L-G09RevA.01  8-May-2009
                28-Oct-2019 
 ******************************************
 %chk=td7-opt.chk
 %NProcShared=4
 Will use up to    4 processors via shared memory.
 Default route:  MP2=Direct MaxDisk=1000GB DenFit
 ----------------------------------------------------------------------
 # cam-b3lyp/aug-cc-pvdz opt nosymm td(root=7,nstates=20) SCRF=PCM int(
 grid=ultrafine)
 ----------------------------------------------------------------------
 1/14=-1,18=20,19=15,26=3,38=1/1,3;
 2/9=110,12=2,15=1,17=6,18=5,40=1/2;
 3/5=16,7=10,11=2,16=1,25=1,30=1,70=2201,71=1,72=1,74=-40,75=-5,82=47/1,2,8,3;
 4//1;
 5/5=2,38=5/2;
 8/6=1,10=1,107=7,108=20/1;
 9/8=7,15=2,41=20,42=1/14;
 10/5=4,31=1/2;
 6/7=2,8=2,9=2,10=2/1;
 7/12=6,13=5,14=7,30=1/1,2,3,16;
 1/14=-1,18=20,19=15/3(2);
 2/9=110,15=1/2;
 99//99;
 2/9=110,15=1/2;
 3/5=16,7=10,11=2,16=1,25=1,30=1,70=2205,71=1,74=-40,75=-5,82=47/1,2,8,3;
 4/5=5,16=3/1;
 5/5=2,38=5/2;
 8/6=1,10=1,107=7,108=20/1;
 9/8=7,15=2,41=20,42=1,49=4/14;
 10/5=4,31=1/2;
 7/12=6,13=5,14=7,30=1/1,2,3,16;
 1/14=-1,18=20,19=15/3(-8);
 2/9=110,15=1/2;
 6/7=2,8=2,9=2,10=2/1;
 99//99;
 -----
 Title
 -----
 Symbolic Z-matrix:
 Charge =  0 Multiplicity = 1
 6                    -0.14841   0.38941  -0.00001 
 7                     1.07589  -0.16092   0.00006 
 8                    -1.19901  -0.24437  -0.00008 
 1                     1.18201  -1.16665   0.00009 
 1                     1.90298   0.41696   0.00015 
 1                    -0.13369   1.49466  -0.00001 
 

 GradGradGradGradGradGradGradGradGradGradGradGradGradGradGradGradGradGrad
 Berny optimization.
 Initialization pass.
                           ----------------------------
                           !    Initial Parameters    !
                           ! (Angstroms and Degrees)  !
 --------------------------                            --------------------------
 ! Name  Definition              Value          Derivative Info.                !
 --------------------------------------------------------------------------------
 ! R1    R(1,2)                  1.3423         estimate D2E/DX2                !
 ! R2    R(1,3)                  1.227          estimate D2E/DX2                !
 ! R3    R(1,6)                  1.1053         estimate D2E/DX2                !
 ! R4    R(2,4)                  1.0113         estimate D2E/DX2                !
 ! R5    R(2,5)                  1.009          estimate D2E/DX2                !
 ! A1    A(2,1,3)              124.6949         estimate D2E/DX2                !
 ! A2    A(2,1,6)              113.4417         estimate D2E/DX2                !
 ! A3    A(3,1,6)              121.8634         estimate D2E/DX2                !
 ! A4    A(1,2,4)              120.2276         estimate D2E/DX2                !
 ! A5    A(1,2,5)              120.8539         estimate D2E/DX2                !
 ! A6    A(4,2,5)              118.9185         estimate D2E/DX2                !
 ! D1    D(3,1,2,4)             -0.0023         estimate D2E/DX2                !
 ! D2    D(3,1,2,5)           -179.9974         estimate D2E/DX2                !
 ! D3    D(6,1,2,4)            179.9982         estimate D2E/DX2                !
 ! D4    D(6,1,2,5)              0.0031         estimate D2E/DX2                !
 --------------------------------------------------------------------------------
 Trust Radius=3.00D-01 FncErr=1.00D-07 GrdErr=1.00D-06
 Number of steps in this run=  25 maximum allowed number of steps= 100.
 GradGradGradGradGradGradGradGradGradGradGradGradGradGradGradGradGradGrad

                          Input orientation:                          
 ---------------------------------------------------------------------
 Center     Atomic      Atomic             Coordinates (Angstroms)
 Number     Number       Type             X           Y           Z
 ---------------------------------------------------------------------
      1          6           0       -0.148406    0.389411   -0.000008
      2          7           0        1.075890   -0.160923    0.000060
      3          8           0       -1.199011   -0.244372   -0.000076
      4          1           0        1.182007   -1.166648    0.000092
      5          1           0        1.902982    0.416959    0.000154
      6          1           0       -0.133692    1.494659   -0.000005
 ---------------------------------------------------------------------
                    Distance matrix (angstroms):
                    1          2          3          4          5
     1  C    0.000000
     2  N    1.342300   0.000000
     3  O    1.226969   2.276431   0.000000
     4  H    2.047271   1.011308   2.553398   0.000000
     5  H    2.051573   1.008974   3.171706   1.740005   0.000000
     6  H    1.105346   2.050376   2.039395   2.968774   2.304231
                    6
     6  H    0.000000
 Symmetry turned off by external request.
 Stoichiometry    CH3NO
 Framework group  C1[X(CH3NO)]
 Deg. of freedom    12
 Full point group                 C1      NOp   1
 Rotational constants (GHZ):     73.1415518     11.3903967      9.8555789
 Standard basis: Aug-CC-pVDZ (5D, 7F)
 Integral buffers will be    131072 words long.
 Raffenetti 2 integral format.
 Two-electron integral symmetry is turned off.
    96 basis functions,   162 primitive gaussians,   102 cartesian basis functions
    12 alpha electrons       12 beta electrons
       nuclear repulsion energy        71.1695258840 Hartrees.
 NAtoms=    6 NActive=    6 NUniq=    6 SFac= 7.50D-01 NAtFMM=   80 NAOKFM=F Big=F
 Standard density basis: Auto (5D, 7F)
   327 Density fitting functions
 ------------------------------------------------------------------------------
 Polarizable Continuum Model (PCM)
 =================================
 Model                : PCM.
 Atomic radii         : UFF (Universal Force Field).
 Polarization charges : Total charges.
 Charge compensation  : None.
 Solution method      : Matrix inversion.
 Cavity type          : Scaled VdW (van der Waals Surface) (Alpha=1.100).
 Cavity algorithm     : GePol (No added spheres)
                        Default sphere list used, NSphG=    6.
                        Lebedev-Laikov grids with approx.  5.0 points / Ang**2.
                        Smoothing algorithm: Karplus/York (Gamma=1.0000).
                        Polarization charges: spherical gaussians, with
                                              point-specific exponents (IZeta= 3).
                        Self-potential: point-specific (ISelfS= 7).
                        Self-field    : sphere-specific E.n sum rule (ISelfD= 2).
 1st derivatives      : Analytical E(r).r(x)/FMM algorithm (CHGder, D1EAlg=3).
                        Cavity 1st derivative terms included.
 Solvent              : Water, Eps=  78.355300 Eps(inf)=   1.777849
 ------------------------------------------------------------------------------
 Spheres list:
 ISph  on   Nord    Re0     Alpha      Xe            Ye            Ze
    1   C      1    1.926   1.100     -0.148406      0.389411     -0.000008
    2   N      2    1.830   1.100      1.075890     -0.160923      0.000060
    3   O      3    1.750   1.100     -1.199011     -0.244372     -0.000076
    4   H      4    1.443   1.100      1.182007     -1.166648      0.000092
    5   H      5    1.443   1.100      1.902982      0.416959      0.000154
    6   H      6    1.443   1.100     -0.133692      1.494659     -0.000005
 ------------------------------------------------------------------------------
 One-electron integrals computed using PRISM.
 NBasis=    96 RedAO= T  NBF=    96
 NBsUse=    96 1.00D-06 NBFU=    96
 Harris functional with IExCor=20419 diagonalized for initial guess.
 ExpMin= 2.97D-02 ExpMax= 1.17D+04 ExpMxC= 4.01D+02 IAcc=3 IRadAn=         5 AccDes= 0.00D+00
 HarFok:  IExCor=20419 AccDes= 0.00D+00 IRadAn=         5 IDoV= 1
 ScaDFX=  1.000000  1.000000  1.000000  1.000000
 FoFCou: FMM=F IPFlag=           0 FMFlag=      100000 FMFlg1=           0
         NFxFlg=           0 DoJE=T BraDBF=F KetDBF=T FulRan=T
         Omega=  0.000000  0.000000  1.000000  0.000000  0.000000 ICntrl=     500 IOpCl=  0
         NMat0=    1 NMatS0=    1 NMatT0=    0 NMatD0=    1 NMtDS0=    0 NMtDT0=    0
         I1Cent=           4 NGrid=           0.
 Symmetry not used in FoFCou.
 Requested convergence on RMS density matrix=1.00D-08 within 128 cycles.
 Requested convergence on MAX density matrix=1.00D-06.
 Requested convergence on             energy=1.00D-06.
 No special actions if energy rises.
 FoFJK:  IHMeth= 1 ICntrl=     0 DoSepK=T KAlg= 1 I1Cent= 0 FoldK=F
 FoFJK:  IHMeth= 1 ICntrl=     0 DoSepK=T KAlg= 1 I1Cent= 0 FoldK=F
 FoFJK:  IHMeth= 1 ICntrl=     0 DoSepK=T KAlg= 1 I1Cent= 0 FoldK=F
 FoFJK:  IHMeth= 1 ICntrl=     0 DoSepK=T KAlg= 1 I1Cent= 0 FoldK=F
 FoFJK:  IHMeth= 1 ICntrl=     0 DoSepK=T KAlg= 1 I1Cent= 0 FoldK=F
 FoFJK:  IHMeth= 1 ICntrl=     0 DoSepK=T KAlg= 1 I1Cent= 0 FoldK=F
 FoFJK:  IHMeth= 1 ICntrl=     0 DoSepK=T KAlg= 1 I1Cent= 0 FoldK=F
 FoFJK:  IHMeth= 1 ICntrl=     0 DoSepK=T KAlg= 1 I1Cent= 0 FoldK=F
 FoFJK:  IHMeth= 1 ICntrl=     0 DoSepK=T KAlg= 1 I1Cent= 0 FoldK=F
 FoFJK:  IHMeth= 1 ICntrl=     0 DoSepK=T KAlg= 1 I1Cent= 0 FoldK=F
 FoFJK:  IHMeth= 1 ICntrl=     0 DoSepK=T KAlg= 1 I1Cent= 0 FoldK=F
 Error on total polarization charges =  0.01050
 SCF Done:  E(RCAM-B3LYP) =  -169.864201704     A.U. after   11 cycles
             Convg  =    0.4600D-08             -V/T =  2.0064
 ExpMin= 2.97D-02 ExpMax= 1.17D+04 ExpMxC= 4.01D+02 IAcc=3 IRadAn=         5 AccDes= 0.00D+00
 HarFok:  IExCor=  205 AccDes= 0.00D+00 IRadAn=         5 IDoV=-2
 ScaDFX=  1.000000  1.000000  1.000000  1.000000
 Range of M.O.s used for correlation:     4    96
 NBasis=    96 NAE=    12 NBE=    12 NFC=     3 NFV=     0
 NROrb=     93 NOA=     9 NOB=     9 NVA=    84 NVB=    84

 **** Warning!!: The largest alpha MO coefficient is  0.18832976D+02

 NEqPCM:  Using equilibrium solvation (IEInf=0, Eps=  78.3553, EpsInf=   1.7778)
    80 initial guesses have been made.
 Convergence on wavefunction:    0.000001000000000
 Iteration     1 Dimension    80 NMult    80
 CISAX will form    80 AO SS matrices at one time.
 FoFJK:  IHMeth= 1 ICntrl=     0 DoSepK=T KAlg= 1 I1Cent= 0 FoldK=F
 FoFJK:  IHMeth= 1 ICntrl=     0 DoSepK=T KAlg= 1 I1Cent= 0 FoldK=F
 New state      1 was old state      6
 New state      2 was old state      1
 New state      3 was old state      2
 New state      4 was old state      3
 New state      6 was old state      4
 New state      8 was old state     11
 New state     10 was old state      8
 New state     11 was old state     10
 New state     13 was old state     14
 New state     14 was old state     13
 No map to state     17
 New state     20 was old state     17
 Iteration     2 Dimension   120 NMult   120
 FoFJK:  IHMeth= 1 ICntrl=     0 DoSepK=T KAlg= 1 I1Cent= 0 FoldK=F
 FoFJK:  IHMeth= 1 ICntrl=     0 DoSepK=T KAlg= 1 I1Cent= 0 FoldK=F
 New state      7 was old state      8
 New state      8 was old state      7
 New state     13 was old state     14
 New state     14 was old state     13
 New state     16 was old state     17
 New state     17 was old state     16
 New state     19 was old state     20
 New state     20 was old state     19
 Iteration     3 Dimension   160 NMult   160
 FoFJK:  IHMeth= 1 ICntrl=     0 DoSepK=T KAlg= 1 I1Cent= 0 FoldK=F
 FoFJK:  IHMeth= 1 ICntrl=     0 DoSepK=T KAlg= 1 I1Cent= 0 FoldK=F
 Iteration     4 Dimension   200 NMult   200
 FoFJK:  IHMeth= 1 ICntrl=     0 DoSepK=T KAlg= 1 I1Cent= 0 FoldK=F
 FoFJK:  IHMeth= 1 ICntrl=     0 DoSepK=T KAlg= 1 I1Cent= 0 FoldK=F
 Iteration     5 Dimension   240 NMult   240
 FoFJK:  IHMeth= 1 ICntrl=     0 DoSepK=T KAlg= 1 I1Cent= 0 FoldK=F
 FoFJK:  IHMeth= 1 ICntrl=     0 DoSepK=T KAlg= 1 I1Cent= 0 FoldK=F
 Iteration     6 Dimension   280 NMult   280
 FoFJK:  IHMeth= 1 ICntrl=     0 DoSepK=T KAlg= 1 I1Cent= 0 FoldK=F
 FoFJK:  IHMeth= 1 ICntrl=     0 DoSepK=T KAlg= 1 I1Cent= 0 FoldK=F
 Iteration     7 Dimension   306 NMult   306
 FoFJK:  IHMeth= 1 ICntrl=     0 DoSepK=T KAlg= 1 I1Cent= 0 FoldK=F
 FoFJK:  IHMeth= 1 ICntrl=     0 DoSepK=T KAlg= 1 I1Cent= 0 FoldK=F
 Iteration     8 Dimension   310 NMult   310
 FoFJK:  IHMeth= 1 ICntrl=     0 DoSepK=T KAlg= 1 I1Cent= 0 FoldK=F
 FoFJK:  IHMeth= 1 ICntrl=     0 DoSepK=T KAlg= 1 I1Cent= 0 FoldK=F
 ***********************************************************************
 Excited states from <AA,BB:AA,BB> singles matrix:
 ***********************************************************************
 
 Ground to excited state transition electric dipole moments (Au):
       state          X           Y           Z        Dip. S.      Osc.
         1         0.0000      0.0000      0.0822      0.0068      0.0010
         2         0.0464      0.1473      0.0001      0.0238      0.0041
         3        -0.0001      0.0000      0.2981      0.0889      0.0154
         4         1.3664      0.0327      0.0001      1.8682      0.3332
         5        -0.3274      0.8521      0.0000      0.8333      0.1562
         6         0.0000     -0.0001      0.0624      0.0039      0.0007
         7         0.7165      0.2569     -0.0001      0.5794      0.1134
         8        -0.0001     -0.0001     -0.4373      0.1912      0.0377
         9         0.0000      0.0000      0.1922      0.0369      0.0076
        10        -0.1655     -0.0543      0.0000      0.0303      0.0064
        11         0.1199     -0.1249      0.0000      0.0300      0.0066
        12         0.0000      0.0000      0.1840      0.0338      0.0076
        13        -0.0770     -0.0200     -0.0001      0.0063      0.0014
        14         0.0000      0.0000     -0.2236      0.0500      0.0115
        15         0.1673      0.0592      0.0000      0.0315      0.0077
        16         0.0000      0.0000     -0.0739      0.0055      0.0014
        17         0.0000      0.0000     -0.1805      0.0326      0.0082
        18        -0.0001     -0.0002     -0.1090      0.0119      0.0030
        19        -0.1834     -0.3992     -0.0001      0.1930      0.0497
        20        -0.0001     -0.0002      0.1933      0.0374      0.0096
 Ground to excited state transition velocity dipole moments (Au):
       state          X           Y           Z        Dip. S.      Osc.
         1         0.0000      0.0000     -0.0210      0.0004      0.0014
         2        -0.0100     -0.0389      0.0000      0.0016      0.0042
         3         0.0000      0.0000     -0.0748      0.0056      0.0144
         4        -0.3597     -0.0077      0.0000      0.1295      0.3227
         5         0.0919     -0.2362      0.0000      0.0642      0.1522
         6         0.0000      0.0000     -0.0185      0.0003      0.0008
         7        -0.2085     -0.0741      0.0000      0.0490      0.1112
         8         0.0000      0.0000      0.1255      0.0158      0.0356
         9         0.0000      0.0000     -0.0607      0.0037      0.0080
        10         0.0437      0.0149      0.0000      0.0021      0.0044
        11        -0.0375      0.0398      0.0000      0.0030      0.0060
        12         0.0000      0.0000     -0.0591      0.0035      0.0070
        13         0.0160      0.0060      0.0000      0.0003      0.0006
        14         0.0000      0.0000      0.0774      0.0060      0.0116
        15        -0.0606     -0.0149      0.0000      0.0039      0.0071
        16         0.0000      0.0000      0.0288      0.0008      0.0015
        17         0.0000      0.0000      0.0719      0.0052      0.0092
        18         0.0000      0.0001      0.0307      0.0009      0.0016
        19         0.0672      0.1554      0.0000      0.0287      0.0495
        20         0.0000      0.0001     -0.0730      0.0053      0.0092
 Ground to excited state transition magnetic dipole moments (Au):
       state          X           Y           Z
         1        -0.9740     -0.3873     -0.0001
         2         0.0000      0.0001      0.5412
         3         0.0064      0.5643     -0.0001
         4         0.0000      0.0000      0.2587
         5         0.0000      0.0000     -0.1128
         6         0.0418     -0.0090      0.0000
         7         0.0000      0.0001      0.5025
         8        -0.0404      0.3354     -0.0001
         9        -0.0626      0.1138      0.0000
        10         0.0000      0.0000      0.0845
        11         0.0000     -0.0001     -0.0164
        12         0.1077     -0.2556      0.0000
        13         0.0000     -0.0001      0.1960
        14        -0.0774     -0.5400     -0.0001
        15         0.0000      0.0000     -0.3668
        16        -0.9732      0.8013      0.0000
        17         0.2623     -0.6644      0.0000
        18         0.1768     -0.5239      0.0000
        19        -0.0001      0.0004     -0.0263
        20         0.0035     -0.1046      0.0000
 <0|del|b> * <b|rxdel|0> + <0|del|b> * <b|delr+rdel|0>
 Rotatory Strengths (R) in cgs (10**-40 erg-esu-cm/Gauss)
       state          XX          YY          ZZ    R(velocity)
         1         0.0011      0.0052      0.0017      0.0027
 Total R(velocity) tensor for State=          1
                 1             2             3 
      1   0.110443D-02 -0.115851D-02  0.000000D+00
      2   0.103432D-02  0.523382D-02  0.000000D+00
      3  -0.288462D+02 -0.130520D+02  0.172735D-02
         2        -0.0262     -0.0048      0.0006     -0.0101
 Total R(velocity) tensor for State=          2
                 1             2             3 
      1  -0.262268D-01 -0.186277D-02  0.253178D+02
      2  -0.758332D-02 -0.484289D-02  0.199546D+02
      3   0.424875D+01 -0.109556D+01  0.632867D-03
         3         0.0277      0.0057      0.0007      0.0114
 Total R(velocity) tensor for State=          3
                 1             2             3 
      1   0.277001D-01 -0.566982D-02  0.409280D-05
      2   0.784762D-02  0.574073D-02  0.190879D-05
      3  -0.182200D+01  0.969135D+01  0.681105D-03
         4        -0.0107     -0.0090      0.0046     -0.0050
 Total R(velocity) tensor for State=          4
                 1             2             3 
      1  -0.106549D-01 -0.119266D-01  0.194034D+03
      2   0.367718D-02 -0.903324D-02 -0.619726D+02
      3  -0.598927D+00  0.280613D+02  0.458176D-02
         5        -0.0005      0.0009     -0.0028     -0.0008
 Total R(velocity) tensor for State=          5
                 1             2             3 
      1  -0.548710D-03 -0.589568D-03 -0.224316D+02
      2   0.115585D-02  0.949854D-03  0.298328D+02
      3   0.190214D+02  0.739973D+01 -0.276521D-02
         6        -0.0017     -0.0008      0.0008     -0.0006
 Total R(velocity) tensor for State=          6
                 1             2             3 
      1  -0.171410D-02 -0.718180D-03  0.000000D+00
      2  -0.516912D-02 -0.803579D-03  0.000000D+00
      3  -0.135621D+01  0.415202D+00  0.809637D-03
         7         0.0005      0.0149      0.0101      0.0085
 Total R(velocity) tensor for State=          7
                 1             2             3 
      1   0.538735D-03  0.436639D-01  0.207254D+03
      2  -0.587463D-02  0.148685D-01 -0.760412D+01
      3  -0.620806D+01  0.174641D+02  0.101053D-01
         8        -0.0129     -0.0141      0.0037     -0.0078
 Total R(velocity) tensor for State=          8
                 1             2             3 
      1  -0.128824D-01 -0.378815D-01  0.107358D-04
      2   0.661368D-02 -0.141422D-01  0.000000D+00
      3   0.618290D+01 -0.331765D+02  0.374961D-02
         9         0.0012      0.0000     -0.0007      0.0002
 Total R(velocity) tensor for State=          9
                 1             2             3 
      1   0.118168D-02 -0.139574D-02  0.000000D+00
      2  -0.561123D-03  0.363601D-04  0.000000D+00
      3  -0.380971D+01  0.320862D-03 -0.677637D-03
        10        -0.0001      0.0006     -0.0003      0.0001
 Total R(velocity) tensor for State=         10
                 1             2             3 
      1  -0.741230D-04 -0.703752D-03 -0.104572D+02
      2  -0.247265D-03  0.616596D-03 -0.124592D+01
      3  -0.266487D+01  0.782856D+01 -0.319292D-03
        11        -0.0002     -0.0045     -0.0009     -0.0018
 Total R(velocity) tensor for State=         11
                 1             2             3 
      1  -0.201066D-03 -0.623724D-02 -0.169255D+02
      2  -0.804807D-02 -0.446040D-02  0.871933D+01
      3   0.899208D+00  0.846471D+00 -0.886715D-03
        12         0.0002      0.0048     -0.0002      0.0016
 Total R(velocity) tensor for State=         12
                 1             2             3 
      1   0.171601D-03  0.702666D-02  0.000000D+00
      2   0.780809D-02  0.476047D-02  0.106634D-05
      3   0.638446D+00  0.294072D+01 -0.214292D-03
        13         0.0026      0.0061     -0.0017      0.0023
 Total R(velocity) tensor for State=         13
                 1             2             3 
      1   0.259713D-02  0.408561D-02 -0.275256D+01
      2  -0.358300D-02  0.606983D-02  0.878597D+00
      3   0.841917D+00 -0.225424D+01 -0.172814D-02
        14        -0.0026     -0.0056      0.0025     -0.0019
 Total R(velocity) tensor for State=         14
                 1             2             3 
      1  -0.260672D-02 -0.326675D-02  0.000000D+00
      2   0.296628D-02 -0.564343D-02  0.000000D+00
      3   0.170893D+02  0.352193D+02  0.247310D-02
        15         0.0005     -0.0005     -0.0013     -0.0004
 Total R(velocity) tensor for State=         15
                 1             2             3 
      1   0.498560D-03 -0.266128D-02 -0.157223D+02
      2   0.203963D-03 -0.545157D-03  0.696253D+01
      3  -0.132758D+01  0.538753D+01 -0.130193D-02
        16        -0.0032      0.0013     -0.0005     -0.0008
 Total R(velocity) tensor for State=         16
                 1             2             3 
      1  -0.321190D-02  0.191328D-02  0.000000D+00
      2  -0.360450D-02  0.132653D-02  0.000000D+00
      3   0.169369D+02 -0.190568D+02 -0.458219D-03
        17        -0.0018      0.0014     -0.0032     -0.0012
 Total R(velocity) tensor for State=         17
                 1             2             3 
      1  -0.176278D-02 -0.530958D-03  0.000000D+00
      2  -0.143895D-02  0.140598D-02  0.000000D+00
      3  -0.264182D+02  0.180162D+02 -0.320837D-02
        18        -0.0535      0.0010     -0.0149     -0.0225
 Total R(velocity) tensor for State=         18
                 1             2             3 
      1  -0.535376D-01  0.370267D-01 -0.212725D-04
      2   0.393710D-02  0.993092D-03 -0.879304D-05
      3  -0.761796D+01  0.954170D+01 -0.149371D-01
        19         0.0616     -0.0061      0.0325      0.0293
 Total R(velocity) tensor for State=         19
                 1             2             3 
      1   0.615593D-01 -0.150193D-01 -0.588022D+02
      2   0.211484D-01 -0.605823D-02 -0.156468D+02
      3   0.539487D+02 -0.233285D+02  0.325293D-01
        20        -0.0084      0.0075     -0.0141     -0.0050
 Total R(velocity) tensor for State=         20
                 1             2             3 
      1  -0.836612D-02 -0.857233D-02 -0.163683D-04
      2  -0.260364D-01  0.746043D-02 -0.750953D-05
      3   0.248904D+00 -0.112231D+02 -0.141153D-01
 1/2[<0|r|b>*<b|rxdel|0> + (<0|rxdel|b>*<b|r|0>)*]
 Rotatory Strengths (R) in cgs (10**-40 erg-esu-cm/Gauss)
       state          XX          YY          ZZ     R(length)     R(au)
         1         0.0061     -0.0009      0.0032      0.0028      0.0000
         2         0.0008     -0.0110     -0.0207     -0.0103      0.0000
         3         0.0002      0.0114      0.0229      0.0115      0.0000
         4        -0.0015      0.0002     -0.0141     -0.0051      0.0000
         5         0.0016     -0.0029     -0.0011     -0.0008      0.0000
         6        -0.0003     -0.0006     -0.0008     -0.0006      0.0000
         7         0.0216     -0.0158      0.0206      0.0088      0.0000
         8        -0.0039      0.0178     -0.0379     -0.0080      0.0000
         9        -0.0016      0.0005      0.0016      0.0002      0.0000
        10         0.0006      0.0000     -0.0002      0.0001      0.0000
        11        -0.0017     -0.0046      0.0005     -0.0019      0.0000
        12         0.0029      0.0041     -0.0019      0.0017      0.0000
        13        -0.0015     -0.0021      0.0098      0.0021      0.0000
        14         0.0011      0.0038     -0.0101     -0.0017      0.0000
        15        -0.0012      0.0004     -0.0003     -0.0004      0.0000
        16         0.0041     -0.0042     -0.0024     -0.0009      0.0000
        17        -0.0024     -0.0064      0.0048     -0.0013      0.0000
        18         0.0155     -0.0815     -0.0007     -0.0222      0.0000
        19        -0.0112      0.0993     -0.0012      0.0290      0.0001
        20         0.0003     -0.0176      0.0025     -0.0049      0.0000
  1/2[<0|del|b>*<b|r|0> + (<0|r|b>*<b|del|0>)*] (Au)
       state          X           Y           Z        Dip. S.   Osc.(frdel)
         1         0.0000      0.0000     -0.0017      0.0017      0.0011
         2        -0.0005     -0.0057      0.0000      0.0062      0.0041
         3         0.0000      0.0000     -0.0223      0.0223      0.0149
         4        -0.4915     -0.0003      0.0000      0.4918      0.3279
         5        -0.0301     -0.2012      0.0000      0.2313      0.1542
         6         0.0000      0.0000     -0.0012      0.0012      0.0008
         7        -0.1494     -0.0190      0.0000      0.1684      0.1123
         8         0.0000      0.0000     -0.0549      0.0549      0.0366
         9         0.0000      0.0000     -0.0117      0.0117      0.0078
        10        -0.0072     -0.0008      0.0000      0.0080      0.0054
        11        -0.0045     -0.0050      0.0000      0.0095      0.0063
        12         0.0000      0.0000     -0.0109      0.0109      0.0072
        13        -0.0012     -0.0001      0.0000      0.0013      0.0009
        14         0.0000      0.0000     -0.0173      0.0173      0.0115
        15        -0.0101     -0.0009      0.0000      0.0110      0.0073
        16         0.0000      0.0000     -0.0021      0.0021      0.0014
        17         0.0000      0.0000     -0.0130      0.0130      0.0087
        18         0.0000      0.0000     -0.0033      0.0033      0.0022
        19        -0.0123     -0.0620      0.0000      0.0744      0.0496
        20         0.0000      0.0000     -0.0141      0.0141      0.0094
 Ground to excited state transition densities written to RWF  633

 Excitation energies and oscillator strengths:
 
 Excited state symmetry could not be determined.
 Excited State   1:      Singlet-?Sym    5.7585 eV  215.31 nm  f=0.0010  <S**2>=0.000
      12 -> 16         0.67201
      12 -> 17        -0.19817
 
 Excited state symmetry could not be determined.
 Excited State   2:      Singlet-?Sym    6.9828 eV  177.56 nm  f=0.0041  <S**2>=0.000
      11 -> 16         0.21060
      12 -> 13         0.58280
      12 -> 15         0.24535
      12 -> 18        -0.11639
      12 -> 20        -0.11128
 
 Excited state symmetry could not be determined.
 Excited State   3:      Singlet-?Sym    7.0555 eV  175.73 nm  f=0.0154  <S**2>=0.000
      11 -> 13         0.66495
      11 -> 14         0.10376
      11 -> 19        -0.13325
      11 -> 20        -0.13321
 
 Excited state symmetry could not be determined.
 Excited State   4:      Singlet-?Sym    7.2786 eV  170.34 nm  f=0.3332  <S**2>=0.000
      11 -> 16         0.55414
      11 -> 17        -0.24884
      12 -> 13        -0.12092
      12 -> 14         0.24545
      12 -> 15        -0.13901
      12 -> 18         0.10071
 
 Excited state symmetry could not be determined.
 Excited State   5:      Singlet-?Sym    7.6531 eV  162.01 nm  f=0.1562  <S**2>=0.000
      11 -> 16        -0.16103
      12 -> 14         0.58622
      12 -> 15         0.25123
      12 -> 18        -0.12116
      12 -> 19        -0.13061
      12 -> 21        -0.10057
 
 Excited state symmetry could not be determined.
 Excited State   6:      Singlet-?Sym    7.7885 eV  159.19 nm  f=0.0007  <S**2>=0.000
      11 -> 13        -0.10747
      11 -> 14         0.63831
      11 -> 15         0.18600
      11 -> 21        -0.15284
 
 Excited state symmetry could not be determined.
 Excited State   7:      Singlet-?Sym    7.9863 eV  155.25 nm  f=0.1134  <S**2>=0.000
      11 -> 16         0.13445
      12 -> 13        -0.34178
      12 -> 14        -0.17914
      12 -> 15         0.50236
      12 -> 18        -0.23171
 This state for optimization and/or second-order correction.
 Copying the excited state density for this state as the 1-particle RhoCI density.
 
 Excited state symmetry could not be determined.
 Excited State   8:      Singlet-?Sym    8.0390 eV  154.23 nm  f=0.0377  <S**2>=0.000
      11 -> 14        -0.17832
      11 -> 15         0.64039
      11 -> 18        -0.16359
      11 -> 23        -0.10793
 
 Excited state symmetry could not be determined.
 Excited State   9:      Singlet-?Sym    8.3858 eV  147.85 nm  f=0.0076  <S**2>=0.000
      12 -> 16         0.19331
      12 -> 17         0.66986
 
 Excited state symmetry could not be determined.
 Excited State  10:      Singlet-?Sym    8.6828 eV  142.79 nm  f=0.0064  <S**2>=0.000
      11 -> 16         0.28933
      11 -> 17         0.63523
 
 Excited state symmetry could not be determined.
 Excited State  11:      Singlet-?Sym    9.0330 eV  137.26 nm  f=0.0066  <S**2>=0.000
      12 -> 15         0.29463
      12 -> 18         0.61247
      12 -> 19         0.12520
 
 Excited state symmetry could not be determined.
 Excited State  12:      Singlet-?Sym    9.1128 eV  136.05 nm  f=0.0076  <S**2>=0.000
      11 -> 15         0.13499
      11 -> 18         0.65580
      11 -> 24         0.14675
 
 Excited state symmetry could not be determined.
 Excited State  13:      Singlet-?Sym    9.3222 eV  133.00 nm  f=0.0014  <S**2>=0.000
      12 -> 14         0.14982
      12 -> 18        -0.11067
      12 -> 19         0.64827
      12 -> 21        -0.10073
 
 Excited state symmetry could not be determined.
 Excited State  14:      Singlet-?Sym    9.3827 eV  132.14 nm  f=0.0115  <S**2>=0.000
      11 -> 13         0.11837
      11 -> 19         0.67057
 
 Excited state symmetry could not be determined.
 Excited State  15:      Singlet-?Sym    9.9732 eV  124.32 nm  f=0.0077  <S**2>=0.000
      12 -> 13         0.10389
      12 -> 14        -0.10627
      12 -> 20         0.57762
      12 -> 23         0.32350
      12 -> 24         0.10799
 
 Excited state symmetry could not be determined.
 Excited State  16:      Singlet-?Sym   10.1415 eV  122.25 nm  f=0.0014  <S**2>=0.000
       9 -> 16         0.64493
       9 -> 17        -0.18743
      11 -> 20         0.11274
      11 -> 23         0.12451
 
 Excited state symmetry could not be determined.
 Excited State  17:      Singlet-?Sym   10.2406 eV  121.07 nm  f=0.0082  <S**2>=0.000
       9 -> 16        -0.14596
      11 -> 13         0.14259
      11 -> 20         0.61702
      11 -> 21         0.16317
      11 -> 23         0.14752
 
 Excited state symmetry could not be determined.
 Excited State  18:      Singlet-?Sym   10.4822 eV  118.28 nm  f=0.0030  <S**2>=0.000
       9 -> 16        -0.10686
      11 -> 20        -0.15572
      11 -> 23         0.57145
      11 -> 24         0.24050
      11 -> 26        -0.13237
      12 -> 22         0.12950
 
 Excited state symmetry could not be determined.
 Excited State  19:      Singlet-?Sym   10.5065 eV  118.01 nm  f=0.0497  <S**2>=0.000
      11 -> 22        -0.20874
      12 -> 14         0.10823
      12 -> 20        -0.21045
      12 -> 21         0.39660
      12 -> 23         0.40132
      12 -> 24         0.21772
 
 Excited state symmetry could not be determined.
 Excited State  20:      Singlet-?Sym   10.5326 eV  117.72 nm  f=0.0096  <S**2>=0.000
      11 -> 14        -0.11893
      11 -> 20         0.12862
      11 -> 21        -0.34909
      11 -> 23        -0.10406
      12 -> 22         0.54700
      12 -> 25        -0.12297
 SavETr:  write IOETrn=   770 NScale= 10 NData=  16 NLR=1 LETran=     370.
 FoFJK:  IHMeth= 1 ICntrl=     0 DoSepK=T KAlg= 1 I1Cent= 0 FoldK=F
 FoFJK:  IHMeth= 1 ICntrl=     0 DoSepK=T KAlg= 1 I1Cent= 0 FoldK=F
          IDoAtm=111111
 NEqPCM:  Using equilibrium solvation (IEInf=0, Eps=  78.3553, EpsInf=   1.7778)
          Differentiating once with respect to electric field.
                with respect to dipole field.
          Differentiating once with respect to nuclear coordinates.
          There are     1 degrees of freedom in the 1st order CPHF.  IDoFFX=0.
 FoFJK:  IHMeth= 1 ICntrl=     0 DoSepK=T KAlg= 1 I1Cent= 0 FoldK=F
 LinEq1:  Iter=  0 NonCon=     1 RMS=4.15D-02 Max=6.94D-01
 AX will form     1 AO Fock derivatives at one time.
 FoFJK:  IHMeth= 1 ICntrl=     0 DoSepK=T KAlg= 1 I1Cent= 0 FoldK=F
 LinEq1:  Iter=  1 NonCon=     1 RMS=1.58D-02 Max=1.36D-01
 FoFJK:  IHMeth= 1 ICntrl=     0 DoSepK=T KAlg= 1 I1Cent= 0 FoldK=F
 LinEq1:  Iter=  2 NonCon=     1 RMS=8.46D-03 Max=1.22D-01
 FoFJK:  IHMeth= 1 ICntrl=     0 DoSepK=T KAlg= 1 I1Cent= 0 FoldK=F
 LinEq1:  Iter=  3 NonCon=     1 RMS=2.16D-03 Max=2.56D-02
 FoFJK:  IHMeth= 1 ICntrl=     0 DoSepK=T KAlg= 1 I1Cent= 0 FoldK=F
 LinEq1:  Iter=  4 NonCon=     1 RMS=1.41D-03 Max=1.97D-02
 FoFJK:  IHMeth= 1 ICntrl=     0 DoSepK=T KAlg= 1 I1Cent= 0 FoldK=F
 LinEq1:  Iter=  5 NonCon=     1 RMS=2.63D-04 Max=2.49D-03
 FoFJK:  IHMeth= 1 ICntrl=     0 DoSepK=T KAlg= 1 I1Cent= 0 FoldK=F
 LinEq1:  Iter=  6 NonCon=     1 RMS=4.10D-05 Max=2.66D-04
 FoFJK:  IHMeth= 1 ICntrl=     0 DoSepK=T KAlg= 1 I1Cent= 0 FoldK=F
 LinEq1:  Iter=  7 NonCon=     1 RMS=6.70D-06 Max=4.34D-05
 FoFJK:  IHMeth= 1 ICntrl=     0 DoSepK=T KAlg= 1 I1Cent= 0 FoldK=F
 LinEq1:  Iter=  8 NonCon=     1 RMS=1.32D-06 Max=1.10D-05
 FoFJK:  IHMeth= 1 ICntrl=     0 DoSepK=T KAlg= 1 I1Cent= 0 FoldK=F
 LinEq1:  Iter=  9 NonCon=     1 RMS=1.86D-07 Max=2.24D-06
 FoFJK:  IHMeth= 1 ICntrl=     0 DoSepK=T KAlg= 1 I1Cent= 0 FoldK=F
 LinEq1:  Iter= 10 NonCon=     1 RMS=3.60D-08 Max=4.20D-07
 FoFJK:  IHMeth= 1 ICntrl=     0 DoSepK=T KAlg= 1 I1Cent= 0 FoldK=F
 LinEq1:  Iter= 11 NonCon=     1 RMS=6.64D-09 Max=5.10D-08
 FoFJK:  IHMeth= 1 ICntrl=     0 DoSepK=T KAlg= 1 I1Cent= 0 FoldK=F
 LinEq1:  Iter= 12 NonCon=     1 RMS=1.08D-09 Max=6.96D-09
 FoFJK:  IHMeth= 1 ICntrl=     0 DoSepK=T KAlg= 1 I1Cent= 0 FoldK=F
 LinEq1:  Iter= 13 NonCon=     1 RMS=1.88D-10 Max=1.07D-09
 FoFJK:  IHMeth= 1 ICntrl=     0 DoSepK=T KAlg= 1 I1Cent= 0 FoldK=F
