 Entering Gaussian System, Link 0=g09
 Input=td7-opt.com
 Output=td7-opt.log
 Initial command:
 /home/diegoa/progs/g09/l1.exe /home/diegoa/g09scratch/Gau-8281.inp -scrdir=/home/diegoa/g09scratch/
 Default is to use a total of   4 processors:
                                4 via shared-memory
                                1 via Linda
 Entering Link 1 = /home/diegoa/progs/g09/l1.exe PID=      8283.
  
 Copyright (c) 1988,1990,1992,1993,1995,1998,2003,2009, Gaussian, Inc.
                  All Rights Reserved.
  
 This is part of the Gaussian(R) 09 program.  It is based on
 the Gaussian(R) 03 system (copyright 2003, Gaussian, Inc.),
 the Gaussian(R) 98 system (copyright 1998, Gaussian, Inc.),
 the Gaussian(R) 94 system (copyright 1995, Gaussian, Inc.),
 the Gaussian 92(TM) system (copyright 1992, Gaussian, Inc.),
 the Gaussian 90(TM) system (copyright 1990, Gaussian, Inc.),
 the Gaussian 88(TM) system (copyright 1988, Gaussian, Inc.),
 the Gaussian 86(TM) system (copyright 1986, Carnegie Mellon
 University), and the Gaussian 82(TM) system (copyright 1983,
 Carnegie Mellon University). Gaussian is a federally registered
 trademark of Gaussian, Inc.
  
 This software contains proprietary and confidential information,
 including trade secrets, belonging to Gaussian, Inc.
  
 This software is provided under written license and may be
 used, copied, transmitted, or stored only in accord with that
 written license.
  
 The following legend is applicable only to US Government
 contracts under FAR:
  
                    RESTRICTED RIGHTS LEGEND
  
 Use, reproduction and disclosure by the US Government is
 subject to restrictions as set forth in subparagraphs (a)
 and (c) of the Commercial Computer Software - Restricted
 Rights clause in FAR 52.227-19.
  
 Gaussian, Inc.
 340 Quinnipiac St., Bldg. 40, Wallingford CT 06492
  
  
 ---------------------------------------------------------------
 Warning -- This program may not be used in any manner that
 competes with the business of Gaussian, Inc. or will provide
 assistance to any competitor of Gaussian, Inc.  The licensee
 of this program is prohibited from giving any competitor of
 Gaussian, Inc. access to this program.  By using this program,
 the user acknowledges that Gaussian, Inc. is engaged in the
 business of creating and licensing software in the field of
 computational chemistry and represents and warrants to the
 licensee that it is not a competitor of Gaussian, Inc. and that
 it will not use this program in any manner prohibited above.
 ---------------------------------------------------------------
  

 Cite this work as:
 Gaussian 09, Revision A.01,
 M. J. Frisch, G. W. Trucks, H. B. Schlegel, G. E. Scuseria, 
 M. A. Robb, J. R. Cheeseman, G. Scalmani, V. Barone, B. Mennucci, 
 G. A. Petersson, H. Nakatsuji, M. Caricato, X. Li, H. P. Hratchian, 
 A. F. Izmaylov, J. Bloino, G. Zheng, J. L. Sonnenberg, M. Hada, 
 M. Ehara, K. Toyota, R. Fukuda, J. Hasegawa, M. Ishida, T. Nakajima, 
 Y. Honda, O. Kitao, H. Nakai, T. Vreven, J. A. Montgomery, Jr., 
 J. E. Peralta, F. Ogliaro, M. Bearpark, J. J. Heyd, E. Brothers, 
 K. N. Kudin, V. N. Staroverov, R. Kobayashi, J. Normand, 
 K. Raghavachari, A. Rendell, J. C. Burant, S. S. Iyengar, J. Tomasi, 
 M. Cossi, N. Rega, J. M. Millam, M. Klene, J. E. Knox, J. B. Cross, 
 V. Bakken, C. Adamo, J. Jaramillo, R. Gomperts, R. E. Stratmann, 
 O. Yazyev, A. J. Austin, R. Cammi, C. Pomelli, J. W. Ochterski, 
 R. L. Martin, K. Morokuma, V. G. Zakrzewski, G. A. Voth, 
 P. Salvador, J. J. Dannenberg, S. Dapprich, A. D. Daniels, 
 O. Farkas, J. B. Foresman, J. V. Ortiz, J. Cioslowski, 
 and D. J. Fox, Gaussian, Inc., Wallingford CT, 2009.
 
 ******************************************
 Gaussian 09:  EM64L-G09RevA.01  8-May-2009
                28-Oct-2019 
 ******************************************
 %chk=td7-opt.chk
 %NProcShared=4
 Will use up to    4 processors via shared memory.
 Default route:  MP2=Direct MaxDisk=1000GB DenFit
 ----------------------------------------------------------------------
 # cam-b3lyp/aug-cc-pvdz opt nosymm td(root=7,nstates=20) SCRF=PCM int(
 grid=ultrafine)
 ----------------------------------------------------------------------
 1/14=-1,18=20,19=15,26=3,38=1/1,3;
 2/9=110,12=2,15=1,17=6,18=5,40=1/2;
 3/5=16,7=10,11=2,16=1,25=1,30=1,70=2201,71=1,72=1,74=-40,75=-5,82=47/1,2,8,3;
 4//1;
 5/5=2,38=5/2;
 8/6=1,10=1,107=7,108=20/1;
 9/8=7,15=2,41=20,42=1/14;
 10/5=4,31=1/2;
 6/7=2,8=2,9=2,10=2/1;
 7/12=6,13=5,14=7,30=1/1,2,3,16;
 1/14=-1,18=20,19=15/3(2);
 2/9=110,15=1/2;
 99//99;
 2/9=110,15=1/2;
 3/5=16,7=10,11=2,16=1,25=1,30=1,70=2205,71=1,74=-40,75=-5,82=47/1,2,8,3;
 4/5=5,16=3/1;
 5/5=2,38=5/2;
 8/6=1,10=1,107=7,108=20/1;
 9/8=7,15=2,41=20,42=1,49=4/14;
 10/5=4,31=1/2;
 7/12=6,13=5,14=7,30=1/1,2,3,16;
 1/14=-1,18=20,19=15/3(-8);
 2/9=110,15=1/2;
 6/7=2,8=2,9=2,10=2/1;
 99//99;
 -----
 Title
 -----
 Symbolic Z-matrix:
 Charge =  0 Multiplicity = 1
 6                    -0.14841   0.38941  -0.00001 
 7                     1.07589  -0.16092   0.00006 
 8                    -1.19901  -0.24437  -0.00008 
 1                     1.18201  -1.16665   0.00009 
 1                     1.90298   0.41696   0.00015 
 1                    -0.13369   1.49466  -0.00001 
 

 GradGradGradGradGradGradGradGradGradGradGradGradGradGradGradGradGradGrad
 Berny optimization.
 Initialization pass.
                           ----------------------------
                           !    Initial Parameters    !
                           ! (Angstroms and Degrees)  !
 --------------------------                            --------------------------
 ! Name  Definition              Value          Derivative Info.                !
 --------------------------------------------------------------------------------
 ! R1    R(1,2)                  1.3423         estimate D2E/DX2                !
 ! R2    R(1,3)                  1.227          estimate D2E/DX2                !
 ! R3    R(1,6)                  1.1053         estimate D2E/DX2                !
 ! R4    R(2,4)                  1.0113         estimate D2E/DX2                !
 ! R5    R(2,5)                  1.009          estimate D2E/DX2                !
 ! A1    A(2,1,3)              124.6949         estimate D2E/DX2                !
 ! A2    A(2,1,6)              113.4417         estimate D2E/DX2                !
 ! A3    A(3,1,6)              121.8634         estimate D2E/DX2                !
 ! A4    A(1,2,4)              120.2276         estimate D2E/DX2                !
 ! A5    A(1,2,5)              120.8539         estimate D2E/DX2                !
 ! A6    A(4,2,5)              118.9185         estimate D2E/DX2                !
 ! D1    D(3,1,2,4)             -0.0023         estimate D2E/DX2                !
 ! D2    D(3,1,2,5)           -179.9974         estimate D2E/DX2                !
 ! D3    D(6,1,2,4)            179.9982         estimate D2E/DX2                !
 ! D4    D(6,1,2,5)              0.0031         estimate D2E/DX2                !
 --------------------------------------------------------------------------------
 Trust Radius=3.00D-01 FncErr=1.00D-07 GrdErr=1.00D-06
 Number of steps in this run=  25 maximum allowed number of steps= 100.
 GradGradGradGradGradGradGradGradGradGradGradGradGradGradGradGradGradGrad

                          Input orientation:                          
 ---------------------------------------------------------------------
 Center     Atomic      Atomic             Coordinates (Angstroms)
 Number     Number       Type             X           Y           Z
 ---------------------------------------------------------------------
      1          6           0       -0.148406    0.389411   -0.000008
      2          7           0        1.075890   -0.160923    0.000060
      3          8           0       -1.199011   -0.244372   -0.000076
      4          1           0        1.182007   -1.166648    0.000092
      5          1           0        1.902982    0.416959    0.000154
      6          1           0       -0.133692    1.494659   -0.000005
 ---------------------------------------------------------------------
                    Distance matrix (angstroms):
                    1          2          3          4          5
     1  C    0.000000
     2  N    1.342300   0.000000
     3  O    1.226969   2.276431   0.000000
     4  H    2.047271   1.011308   2.553398   0.000000
     5  H    2.051573   1.008974   3.171706   1.740005   0.000000
     6  H    1.105346   2.050376   2.039395   2.968774   2.304231
                    6
     6  H    0.000000
 Symmetry turned off by external request.
 Stoichiometry    CH3NO
 Framework group  C1[X(CH3NO)]
 Deg. of freedom    12
 Full point group                 C1      NOp   1
 Rotational constants (GHZ):     73.1415518     11.3903967      9.8555789
 Standard basis: Aug-CC-pVDZ (5D, 7F)
 Integral buffers will be    131072 words long.
 Raffenetti 2 integral format.
 Two-electron integral symmetry is turned off.
    96 basis functions,   162 primitive gaussians,   102 cartesian basis functions
    12 alpha electrons       12 beta electrons
       nuclear repulsion energy        71.1695258840 Hartrees.
 NAtoms=    6 NActive=    6 NUniq=    6 SFac= 7.50D-01 NAtFMM=   80 NAOKFM=F Big=F
 Standard density basis: Auto (5D, 7F)
   327 Density fitting functions
 ------------------------------------------------------------------------------
 Polarizable Continuum Model (PCM)
 =================================
 Model                : PCM.
 Atomic radii         : UFF (Universal Force Field).
 Polarization charges : Total charges.
 Charge compensation  : None.
 Solution method      : Matrix inversion.
 Cavity type          : Scaled VdW (van der Waals Surface) (Alpha=1.100).
 Cavity algorithm     : GePol (No added spheres)
                        Default sphere list used, NSphG=    6.
                        Lebedev-Laikov grids with approx.  5.0 points / Ang**2.
                        Smoothing algorithm: Karplus/York (Gamma=1.0000).
                        Polarization charges: spherical gaussians, with
                                              point-specific exponents (IZeta= 3).
                        Self-potential: point-specific (ISelfS= 7).
                        Self-field    : sphere-specific E.n sum rule (ISelfD= 2).
 1st derivatives      : Analytical E(r).r(x)/FMM algorithm (CHGder, D1EAlg=3).
                        Cavity 1st derivative terms included.
 Solvent              : Water, Eps=  78.355300 Eps(inf)=   1.777849
 ------------------------------------------------------------------------------
 Spheres list:
 ISph  on   Nord    Re0     Alpha      Xe            Ye            Ze
    1   C      1    1.926   1.100     -0.148406      0.389411     -0.000008
    2   N      2    1.830   1.100      1.075890     -0.160923      0.000060
    3   O      3    1.750   1.100     -1.199011     -0.244372     -0.000076
    4   H      4    1.443   1.100      1.182007     -1.166648      0.000092
    5   H      5    1.443   1.100      1.902982      0.416959      0.000154
    6   H      6    1.443   1.100     -0.133692      1.494659     -0.000005
 ------------------------------------------------------------------------------
 One-electron integrals computed using PRISM.
 NBasis=    96 RedAO= T  NBF=    96
 NBsUse=    96 1.00D-06 NBFU=    96
 Harris functional with IExCor=20419 diagonalized for initial guess.
 ExpMin= 2.97D-02 ExpMax= 1.17D+04 ExpMxC= 4.01D+02 IAcc=3 IRadAn=         5 AccDes= 0.00D+00
 HarFok:  IExCor=20419 AccDes= 0.00D+00 IRadAn=         5 IDoV= 1
 ScaDFX=  1.000000  1.000000  1.000000  1.000000
 FoFCou: FMM=F IPFlag=           0 FMFlag=      100000 FMFlg1=           0
         NFxFlg=           0 DoJE=T BraDBF=F KetDBF=T FulRan=T
         Omega=  0.000000  0.000000  1.000000  0.000000  0.000000 ICntrl=     500 IOpCl=  0
         NMat0=    1 NMatS0=    1 NMatT0=    0 NMatD0=    1 NMtDS0=    0 NMtDT0=    0
         I1Cent=           4 NGrid=           0.
 Symmetry not used in FoFCou.
 Requested convergence on RMS density matrix=1.00D-08 within 128 cycles.
 Requested convergence on MAX density matrix=1.00D-06.
 Requested convergence on             energy=1.00D-06.
 No special actions if energy rises.
 FoFJK:  IHMeth= 1 ICntrl=     0 DoSepK=T KAlg= 1 I1Cent= 0 FoldK=F
 FoFJK:  IHMeth= 1 ICntrl=     0 DoSepK=T KAlg= 1 I1Cent= 0 FoldK=F
 FoFJK:  IHMeth= 1 ICntrl=     0 DoSepK=T KAlg= 1 I1Cent= 0 FoldK=F
 FoFJK:  IHMeth= 1 ICntrl=     0 DoSepK=T KAlg= 1 I1Cent= 0 FoldK=F
 FoFJK:  IHMeth= 1 ICntrl=     0 DoSepK=T KAlg= 1 I1Cent= 0 FoldK=F
 FoFJK:  IHMeth= 1 ICntrl=     0 DoSepK=T KAlg= 1 I1Cent= 0 FoldK=F
 FoFJK:  IHMeth= 1 ICntrl=     0 DoSepK=T KAlg= 1 I1Cent= 0 FoldK=F
 FoFJK:  IHMeth= 1 ICntrl=     0 DoSepK=T KAlg= 1 I1Cent= 0 FoldK=F
 FoFJK:  IHMeth= 1 ICntrl=     0 DoSepK=T KAlg= 1 I1Cent= 0 FoldK=F
 FoFJK:  IHMeth= 1 ICntrl=     0 DoSepK=T KAlg= 1 I1Cent= 0 FoldK=F
 FoFJK:  IHMeth= 1 ICntrl=     0 DoSepK=T KAlg= 1 I1Cent= 0 FoldK=F
 Error on total polarization charges =  0.01050
 SCF Done:  E(RCAM-B3LYP) =  -169.864201704     A.U. after   11 cycles
             Convg  =    0.4600D-08             -V/T =  2.0064
 ExpMin= 2.97D-02 ExpMax= 1.17D+04 ExpMxC= 4.01D+02 IAcc=3 IRadAn=         5 AccDes= 0.00D+00
 HarFok:  IExCor=  205 AccDes= 0.00D+00 IRadAn=         5 IDoV=-2
 ScaDFX=  1.000000  1.000000  1.000000  1.000000
 Range of M.O.s used for correlation:     4    96
 NBasis=    96 NAE=    12 NBE=    12 NFC=     3 NFV=     0
 NROrb=     93 NOA=     9 NOB=     9 NVA=    84 NVB=    84

 **** Warning!!: The largest alpha MO coefficient is  0.18832976D+02

 NEqPCM:  Using equilibrium solvation (IEInf=0, Eps=  78.3553, EpsInf=   1.7778)
    80 initial guesses have been made.
 Convergence on wavefunction:    0.000001000000000
 Iteration     1 Dimension    80 NMult    80
 CISAX will form    80 AO SS matrices at one time.
 FoFJK:  IHMeth= 1 ICntrl=     0 DoSepK=T KAlg= 1 I1Cent= 0 FoldK=F
 FoFJK:  IHMeth= 1 ICntrl=     0 DoSepK=T KAlg= 1 I1Cent= 0 FoldK=F
 New state      1 was old state      6
 New state      2 was old state      1
 New state      3 was old state      2
 New state      4 was old state      3
 New state      6 was old state      4
 New state      8 was old state     11
 New state     10 was old state      8
 New state     11 was old state     10
 New state     13 was old state     14
 New state     14 was old state     13
 No map to state     17
 New state     20 was old state     17
 Iteration     2 Dimension   120 NMult   120
 FoFJK:  IHMeth= 1 ICntrl=     0 DoSepK=T KAlg= 1 I1Cent= 0 FoldK=F
 FoFJK:  IHMeth= 1 ICntrl=     0 DoSepK=T KAlg= 1 I1Cent= 0 FoldK=F
 New state      7 was old state      8
 New state      8 was old state      7
 New state     13 was old state     14
 New state     14 was old state     13
 New state     16 was old state     17
 New state     17 was old state     16
 New state     19 was old state     20
 New state     20 was old state     19
 Iteration     3 Dimension   160 NMult   160
 FoFJK:  IHMeth= 1 ICntrl=     0 DoSepK=T KAlg= 1 I1Cent= 0 FoldK=F
 FoFJK:  IHMeth= 1 ICntrl=     0 DoSepK=T KAlg= 1 I1Cent= 0 FoldK=F
 Iteration     4 Dimension   200 NMult   200
 FoFJK:  IHMeth= 1 ICntrl=     0 DoSepK=T KAlg= 1 I1Cent= 0 FoldK=F
 FoFJK:  IHMeth= 1 ICntrl=     0 DoSepK=T KAlg= 1 I1Cent= 0 FoldK=F
 Iteration     5 Dimension   240 NMult   240
 FoFJK:  IHMeth= 1 ICntrl=     0 DoSepK=T KAlg= 1 I1Cent= 0 FoldK=F
 FoFJK:  IHMeth= 1 ICntrl=     0 DoSepK=T KAlg= 1 I1Cent= 0 FoldK=F
 Iteration     6 Dimension   280 NMult   280
 FoFJK:  IHMeth= 1 ICntrl=     0 DoSepK=T KAlg= 1 I1Cent= 0 FoldK=F
 FoFJK:  IHMeth= 1 ICntrl=     0 DoSepK=T KAlg= 1 I1Cent= 0 FoldK=F
 Iteration     7 Dimension   306 NMult   306
 FoFJK:  IHMeth= 1 ICntrl=     0 DoSepK=T KAlg= 1 I1Cent= 0 FoldK=F
 FoFJK:  IHMeth= 1 ICntrl=     0 DoSepK=T KAlg= 1 I1Cent= 0 FoldK=F
 Iteration     8 Dimension   310 NMult   310
 FoFJK:  IHMeth= 1 ICntrl=     0 DoSepK=T KAlg= 1 I1Cent= 0 FoldK=F
 FoFJK:  IHMeth= 1 ICntrl=     0 DoSepK=T KAlg= 1 I1Cent= 0 FoldK=F
 ***********************************************************************
 Excited states from <AA,BB:AA,BB> singles matrix:
 ***********************************************************************
 
 Ground to excited state transition electric dipole moments (Au):
       state          X           Y           Z        Dip. S.      Osc.
         1         0.0000      0.0000      0.0822      0.0068      0.0010
         2         0.0464      0.1473      0.0001      0.0238      0.0041
         3        -0.0001      0.0000      0.2981      0.0889      0.0154
         4         1.3664      0.0327      0.0001      1.8682      0.3332
         5        -0.3274      0.8521      0.0000      0.8333      0.1562
         6         0.0000     -0.0001      0.0624      0.0039      0.0007
         7         0.7165      0.2569     -0.0001      0.5794      0.1134
         8        -0.0001     -0.0001     -0.4373      0.1912      0.0377
         9         0.0000      0.0000      0.1922      0.0369      0.0076
        10        -0.1655     -0.0543      0.0000      0.0303      0.0064
        11         0.1199     -0.1249      0.0000      0.0300      0.0066
        12         0.0000      0.0000      0.1840      0.0338      0.0076
        13        -0.0770     -0.0200     -0.0001      0.0063      0.0014
        14         0.0000      0.0000     -0.2236      0.0500      0.0115
        15         0.1673      0.0592      0.0000      0.0315      0.0077
        16         0.0000      0.0000     -0.0739      0.0055      0.0014
        17         0.0000      0.0000     -0.1805      0.0326      0.0082
        18        -0.0001     -0.0002     -0.1090      0.0119      0.0030
        19        -0.1834     -0.3992     -0.0001      0.1930      0.0497
        20        -0.0001     -0.0002      0.1933      0.0374      0.0096
 Ground to excited state transition velocity dipole moments (Au):
       state          X           Y           Z        Dip. S.      Osc.
         1         0.0000      0.0000     -0.0210      0.0004      0.0014
         2        -0.0100     -0.0389      0.0000      0.0016      0.0042
         3         0.0000      0.0000     -0.0748      0.0056      0.0144
         4        -0.3597     -0.0077      0.0000      0.1295      0.3227
         5         0.0919     -0.2362      0.0000      0.0642      0.1522
         6         0.0000      0.0000     -0.0185      0.0003      0.0008
         7        -0.2085     -0.0741      0.0000      0.0490      0.1112
         8         0.0000      0.0000      0.1255      0.0158      0.0356
         9         0.0000      0.0000     -0.0607      0.0037      0.0080
        10         0.0437      0.0149      0.0000      0.0021      0.0044
        11        -0.0375      0.0398      0.0000      0.0030      0.0060
        12         0.0000      0.0000     -0.0591      0.0035      0.0070
        13         0.0160      0.0060      0.0000      0.0003      0.0006
        14         0.0000      0.0000      0.0774      0.0060      0.0116
        15        -0.0606     -0.0149      0.0000      0.0039      0.0071
        16         0.0000      0.0000      0.0288      0.0008      0.0015
        17         0.0000      0.0000      0.0719      0.0052      0.0092
        18         0.0000      0.0001      0.0307      0.0009      0.0016
        19         0.0672      0.1554      0.0000      0.0287      0.0495
        20         0.0000      0.0001     -0.0730      0.0053      0.0092
 Ground to excited state transition magnetic dipole moments (Au):
       state          X           Y           Z
         1        -0.9740     -0.3873     -0.0001
         2         0.0000      0.0001      0.5412
         3         0.0064      0.5643     -0.0001
         4         0.0000      0.0000      0.2587
         5         0.0000      0.0000     -0.1128
         6         0.0418     -0.0090      0.0000
         7         0.0000      0.0001      0.5025
         8        -0.0404      0.3354     -0.0001
         9        -0.0626      0.1138      0.0000
        10         0.0000      0.0000      0.0845
        11         0.0000     -0.0001     -0.0164
        12         0.1077     -0.2556      0.0000
        13         0.0000     -0.0001      0.1960
        14        -0.0774     -0.5400     -0.0001
        15         0.0000      0.0000     -0.3668
        16        -0.9732      0.8013      0.0000
        17         0.2623     -0.6644      0.0000
        18         0.1768     -0.5239      0.0000
        19        -0.0001      0.0004     -0.0263
        20         0.0035     -0.1046      0.0000
 <0|del|b> * <b|rxdel|0> + <0|del|b> * <b|delr+rdel|0>
 Rotatory Strengths (R) in cgs (10**-40 erg-esu-cm/Gauss)
       state          XX          YY          ZZ    R(velocity)
         1         0.0011      0.0052      0.0017      0.0027
 Total R(velocity) tensor for State=          1
                 1             2             3 
      1   0.110443D-02 -0.115851D-02  0.000000D+00
      2   0.103432D-02  0.523382D-02  0.000000D+00
      3  -0.288462D+02 -0.130520D+02  0.172735D-02
         2        -0.0262     -0.0048      0.0006     -0.0101
 Total R(velocity) tensor for State=          2
                 1             2             3 
      1  -0.262268D-01 -0.186277D-02  0.253178D+02
      2  -0.758332D-02 -0.484289D-02  0.199546D+02
      3   0.424875D+01 -0.109556D+01  0.632867D-03
         3         0.0277      0.0057      0.0007      0.0114
 Total R(velocity) tensor for State=          3
                 1             2             3 
      1   0.277001D-01 -0.566982D-02  0.409280D-05
      2   0.784762D-02  0.574073D-02  0.190879D-05
      3  -0.182200D+01  0.969135D+01  0.681105D-03
         4        -0.0107     -0.0090      0.0046     -0.0050
 Total R(velocity) tensor for State=          4
                 1             2             3 
      1  -0.106549D-01 -0.119266D-01  0.194034D+03
      2   0.367718D-02 -0.903324D-02 -0.619726D+02
      3  -0.598927D+00  0.280613D+02  0.458176D-02
         5        -0.0005      0.0009     -0.0028     -0.0008
 Total R(velocity) tensor for State=          5
                 1             2             3 
      1  -0.548710D-03 -0.589568D-03 -0.224316D+02
      2   0.115585D-02  0.949854D-03  0.298328D+02
      3   0.190214D+02  0.739973D+01 -0.276521D-02
         6        -0.0017     -0.0008      0.0008     -0.0006
 Total R(velocity) tensor for State=          6
                 1             2             3 
      1  -0.171410D-02 -0.718180D-03  0.000000D+00
      2  -0.516912D-02 -0.803579D-03  0.000000D+00
      3  -0.135621D+01  0.415202D+00  0.809637D-03
         7         0.0005      0.0149      0.0101      0.0085
 Total R(velocity) tensor for State=          7
                 1             2             3 
      1   0.538735D-03  0.436639D-01  0.207254D+03
      2  -0.587463D-02  0.148685D-01 -0.760412D+01
      3  -0.620806D+01  0.174641D+02  0.101053D-01
         8        -0.0129     -0.0141      0.0037     -0.0078
 Total R(velocity) tensor for State=          8
                 1             2             3 
      1  -0.128824D-01 -0.378815D-01  0.107358D-04
      2   0.661368D-02 -0.141422D-01  0.000000D+00
      3   0.618290D+01 -0.331765D+02  0.374961D-02
         9         0.0012      0.0000     -0.0007      0.0002
 Total R(velocity) tensor for State=          9
                 1             2             3 
      1   0.118168D-02 -0.139574D-02  0.000000D+00
      2  -0.561123D-03  0.363601D-04  0.000000D+00
      3  -0.380971D+01  0.320862D-03 -0.677637D-03
        10        -0.0001      0.0006     -0.0003      0.0001
 Total R(velocity) tensor for State=         10
                 1             2             3 
      1  -0.741230D-04 -0.703752D-03 -0.104572D+02
      2  -0.247265D-03  0.616596D-03 -0.124592D+01
      3  -0.266487D+01  0.782856D+01 -0.319292D-03
        11        -0.0002     -0.0045     -0.0009     -0.0018
 Total R(velocity) tensor for State=         11
                 1             2             3 
      1  -0.201066D-03 -0.623724D-02 -0.169255D+02
      2  -0.804807D-02 -0.446040D-02  0.871933D+01
      3   0.899208D+00  0.846471D+00 -0.886715D-03
        12         0.0002      0.0048     -0.0002      0.0016
 Total R(velocity) tensor for State=         12
                 1             2             3 
      1   0.171601D-03  0.702666D-02  0.000000D+00
      2   0.780809D-02  0.476047D-02  0.106634D-05
      3   0.638446D+00  0.294072D+01 -0.214292D-03
        13         0.0026      0.0061     -0.0017      0.0023
 Total R(velocity) tensor for State=         13
                 1             2             3 
      1   0.259713D-02  0.408561D-02 -0.275256D+01
      2  -0.358300D-02  0.606983D-02  0.878597D+00
      3   0.841917D+00 -0.225424D+01 -0.172814D-02
        14        -0.0026     -0.0056      0.0025     -0.0019
 Total R(velocity) tensor for State=         14
                 1             2             3 
      1  -0.260672D-02 -0.326675D-02  0.000000D+00
      2   0.296628D-02 -0.564343D-02  0.000000D+00
      3   0.170893D+02  0.352193D+02  0.247310D-02
        15         0.0005     -0.0005     -0.0013     -0.0004
 Total R(velocity) tensor for State=         15
                 1             2             3 
      1   0.498560D-03 -0.266128D-02 -0.157223D+02
      2   0.203963D-03 -0.545157D-03  0.696253D+01
      3  -0.132758D+01  0.538753D+01 -0.130193D-02
        16        -0.0032      0.0013     -0.0005     -0.0008
 Total R(velocity) tensor for State=         16
                 1             2             3 
      1  -0.321190D-02  0.191328D-02  0.000000D+00
      2  -0.360450D-02  0.132653D-02  0.000000D+00
      3   0.169369D+02 -0.190568D+02 -0.458219D-03
        17        -0.0018      0.0014     -0.0032     -0.0012
 Total R(velocity) tensor for State=         17
                 1             2             3 
      1  -0.176278D-02 -0.530958D-03  0.000000D+00
      2  -0.143895D-02  0.140598D-02  0.000000D+00
      3  -0.264182D+02  0.180162D+02 -0.320837D-02
        18        -0.0535      0.0010     -0.0149     -0.0225
 Total R(velocity) tensor for State=         18
                 1             2             3 
      1  -0.535376D-01  0.370267D-01 -0.212725D-04
      2   0.393710D-02  0.993092D-03 -0.879304D-05
      3  -0.761796D+01  0.954170D+01 -0.149371D-01
        19         0.0616     -0.0061      0.0325      0.0293
 Total R(velocity) tensor for State=         19
                 1             2             3 
      1   0.615593D-01 -0.150193D-01 -0.588022D+02
      2   0.211484D-01 -0.605823D-02 -0.156468D+02
      3   0.539487D+02 -0.233285D+02  0.325293D-01
        20        -0.0084      0.0075     -0.0141     -0.0050
 Total R(velocity) tensor for State=         20
                 1             2             3 
      1  -0.836612D-02 -0.857233D-02 -0.163683D-04
      2  -0.260364D-01  0.746043D-02 -0.750953D-05
      3   0.248904D+00 -0.112231D+02 -0.141153D-01
 1/2[<0|r|b>*<b|rxdel|0> + (<0|rxdel|b>*<b|r|0>)*]
 Rotatory Strengths (R) in cgs (10**-40 erg-esu-cm/Gauss)
       state          XX          YY          ZZ     R(length)     R(au)
         1         0.0061     -0.0009      0.0032      0.0028      0.0000
         2         0.0008     -0.0110     -0.0207     -0.0103      0.0000
         3         0.0002      0.0114      0.0229      0.0115      0.0000
         4        -0.0015      0.0002     -0.0141     -0.0051      0.0000
         5         0.0016     -0.0029     -0.0011     -0.0008      0.0000
         6        -0.0003     -0.0006     -0.0008     -0.0006      0.0000
         7         0.0216     -0.0158      0.0206      0.0088      0.0000
         8        -0.0039      0.0178     -0.0379     -0.0080      0.0000
         9        -0.0016      0.0005      0.0016      0.0002      0.0000
        10         0.0006      0.0000     -0.0002      0.0001      0.0000
        11        -0.0017     -0.0046      0.0005     -0.0019      0.0000
        12         0.0029      0.0041     -0.0019      0.0017      0.0000
        13        -0.0015     -0.0021      0.0098      0.0021      0.0000
        14         0.0011      0.0038     -0.0101     -0.0017      0.0000
        15        -0.0012      0.0004     -0.0003     -0.0004      0.0000
        16         0.0041     -0.0042     -0.0024     -0.0009      0.0000
        17        -0.0024     -0.0064      0.0048     -0.0013      0.0000
        18         0.0155     -0.0815     -0.0007     -0.0222      0.0000
        19        -0.0112      0.0993     -0.0012      0.0290      0.0001
        20         0.0003     -0.0176      0.0025     -0.0049      0.0000
  1/2[<0|del|b>*<b|r|0> + (<0|r|b>*<b|del|0>)*] (Au)
       state          X           Y           Z        Dip. S.   Osc.(frdel)
         1         0.0000      0.0000     -0.0017      0.0017      0.0011
         2        -0.0005     -0.0057      0.0000      0.0062      0.0041
         3         0.0000      0.0000     -0.0223      0.0223      0.0149
         4        -0.4915     -0.0003      0.0000      0.4918      0.3279
         5        -0.0301     -0.2012      0.0000      0.2313      0.1542
         6         0.0000      0.0000     -0.0012      0.0012      0.0008
         7        -0.1494     -0.0190      0.0000      0.1684      0.1123
         8         0.0000      0.0000     -0.0549      0.0549      0.0366
         9         0.0000      0.0000     -0.0117      0.0117      0.0078
        10        -0.0072     -0.0008      0.0000      0.0080      0.0054
        11        -0.0045     -0.0050      0.0000      0.0095      0.0063
        12         0.0000      0.0000     -0.0109      0.0109      0.0072
        13        -0.0012     -0.0001      0.0000      0.0013      0.0009
        14         0.0000      0.0000     -0.0173      0.0173      0.0115
        15        -0.0101     -0.0009      0.0000      0.0110      0.0073
        16         0.0000      0.0000     -0.0021      0.0021      0.0014
        17         0.0000      0.0000     -0.0130      0.0130      0.0087
        18         0.0000      0.0000     -0.0033      0.0033      0.0022
        19        -0.0123     -0.0620      0.0000      0.0744      0.0496
        20         0.0000      0.0000     -0.0141      0.0141      0.0094
 Ground to excited state transition densities written to RWF  633

 Excitation energies and oscillator strengths:
 
 Excited state symmetry could not be determined.
 Excited State   1:      Singlet-?Sym    5.7585 eV  215.31 nm  f=0.0010  <S**2>=0.000
      12 -> 16         0.67201
      12 -> 17        -0.19817
 
 Excited state symmetry could not be determined.
 Excited State   2:      Singlet-?Sym    6.9828 eV  177.56 nm  f=0.0041  <S**2>=0.000
      11 -> 16         0.21060
      12 -> 13         0.58280
      12 -> 15         0.24535
      12 -> 18        -0.11639
      12 -> 20        -0.11128
 
 Excited state symmetry could not be determined.
 Excited State   3:      Singlet-?Sym    7.0555 eV  175.73 nm  f=0.0154  <S**2>=0.000
      11 -> 13         0.66495
      11 -> 14         0.10376
      11 -> 19        -0.13325
      11 -> 20        -0.13321
 
 Excited state symmetry could not be determined.
 Excited State   4:      Singlet-?Sym    7.2786 eV  170.34 nm  f=0.3332  <S**2>=0.000
      11 -> 16         0.55414
      11 -> 17        -0.24884
      12 -> 13        -0.12092
      12 -> 14         0.24545
      12 -> 15        -0.13901
      12 -> 18         0.10071
 
 Excited state symmetry could not be determined.
 Excited State   5:      Singlet-?Sym    7.6531 eV  162.01 nm  f=0.1562  <S**2>=0.000
      11 -> 16        -0.16103
      12 -> 14         0.58622
      12 -> 15         0.25123
      12 -> 18        -0.12116
      12 -> 19        -0.13061
      12 -> 21        -0.10057
 
 Excited state symmetry could not be determined.
 Excited State   6:      Singlet-?Sym    7.7885 eV  159.19 nm  f=0.0007  <S**2>=0.000
      11 -> 13        -0.10747
      11 -> 14         0.63831
      11 -> 15         0.18600
      11 -> 21        -0.15284
 
 Excited state symmetry could not be determined.
 Excited State   7:      Singlet-?Sym    7.9863 eV  155.25 nm  f=0.1134  <S**2>=0.000
      11 -> 16         0.13445
      12 -> 13        -0.34178
      12 -> 14        -0.17914
      12 -> 15         0.50236
      12 -> 18        -0.23171
 This state for optimization and/or second-order correction.
 Copying the excited state density for this state as the 1-particle RhoCI density.
 
 Excited state symmetry could not be determined.
 Excited State   8:      Singlet-?Sym    8.0390 eV  154.23 nm  f=0.0377  <S**2>=0.000
      11 -> 14        -0.17832
      11 -> 15         0.64039
      11 -> 18        -0.16359
      11 -> 23        -0.10793
 
 Excited state symmetry could not be determined.
 Excited State   9:      Singlet-?Sym    8.3858 eV  147.85 nm  f=0.0076  <S**2>=0.000
      12 -> 16         0.19331
      12 -> 17         0.66986
 
 Excited state symmetry could not be determined.
 Excited State  10:      Singlet-?Sym    8.6828 eV  142.79 nm  f=0.0064  <S**2>=0.000
      11 -> 16         0.28933
      11 -> 17         0.63523
 
 Excited state symmetry could not be determined.
 Excited State  11:      Singlet-?Sym    9.0330 eV  137.26 nm  f=0.0066  <S**2>=0.000
      12 -> 15         0.29463
      12 -> 18         0.61247
      12 -> 19         0.12520
 
 Excited state symmetry could not be determined.
 Excited State  12:      Singlet-?Sym    9.1128 eV  136.05 nm  f=0.0076  <S**2>=0.000
      11 -> 15         0.13499
      11 -> 18         0.65580
      11 -> 24         0.14675
 
 Excited state symmetry could not be determined.
 Excited State  13:      Singlet-?Sym    9.3222 eV  133.00 nm  f=0.0014  <S**2>=0.000
      12 -> 14         0.14982
      12 -> 18        -0.11067
      12 -> 19         0.64827
      12 -> 21        -0.10073
 
 Excited state symmetry could not be determined.
 Excited State  14:      Singlet-?Sym    9.3827 eV  132.14 nm  f=0.0115  <S**2>=0.000
      11 -> 13         0.11837
      11 -> 19         0.67057
 
 Excited state symmetry could not be determined.
 Excited State  15:      Singlet-?Sym    9.9732 eV  124.32 nm  f=0.0077  <S**2>=0.000
      12 -> 13         0.10389
      12 -> 14        -0.10627
      12 -> 20         0.57762
      12 -> 23         0.32350
      12 -> 24         0.10799
 
 Excited state symmetry could not be determined.
 Excited State  16:      Singlet-?Sym   10.1415 eV  122.25 nm  f=0.0014  <S**2>=0.000
       9 -> 16         0.64493
       9 -> 17        -0.18743
      11 -> 20         0.11274
      11 -> 23         0.12451
 
 Excited state symmetry could not be determined.
 Excited State  17:      Singlet-?Sym   10.2406 eV  121.07 nm  f=0.0082  <S**2>=0.000
       9 -> 16        -0.14596
      11 -> 13         0.14259
      11 -> 20         0.61702
      11 -> 21         0.16317
      11 -> 23         0.14752
 
 Excited state symmetry could not be determined.
 Excited State  18:      Singlet-?Sym   10.4822 eV  118.28 nm  f=0.0030  <S**2>=0.000
       9 -> 16        -0.10686
      11 -> 20        -0.15572
      11 -> 23         0.57145
      11 -> 24         0.24050
      11 -> 26        -0.13237
      12 -> 22         0.12950
 
 Excited state symmetry could not be determined.
 Excited State  19:      Singlet-?Sym   10.5065 eV  118.01 nm  f=0.0497  <S**2>=0.000
      11 -> 22        -0.20874
      12 -> 14         0.10823
      12 -> 20        -0.21045
      12 -> 21         0.39660
      12 -> 23         0.40132
      12 -> 24         0.21772
 
 Excited state symmetry could not be determined.
 Excited State  20:      Singlet-?Sym   10.5326 eV  117.72 nm  f=0.0096  <S**2>=0.000
      11 -> 14        -0.11893
      11 -> 20         0.12862
      11 -> 21        -0.34909
      11 -> 23        -0.10406
      12 -> 22         0.54700
      12 -> 25        -0.12297
 SavETr:  write IOETrn=   770 NScale= 10 NData=  16 NLR=1 LETran=     370.
 FoFJK:  IHMeth= 1 ICntrl=     0 DoSepK=T KAlg= 1 I1Cent= 0 FoldK=F
 FoFJK:  IHMeth= 1 ICntrl=     0 DoSepK=T KAlg= 1 I1Cent= 0 FoldK=F
          IDoAtm=111111
 NEqPCM:  Using equilibrium solvation (IEInf=0, Eps=  78.3553, EpsInf=   1.7778)
          Differentiating once with respect to electric field.
                with respect to dipole field.
          Differentiating once with respect to nuclear coordinates.
          There are     1 degrees of freedom in the 1st order CPHF.  IDoFFX=0.
 FoFJK:  IHMeth= 1 ICntrl=     0 DoSepK=T KAlg= 1 I1Cent= 0 FoldK=F
 LinEq1:  Iter=  0 NonCon=     1 RMS=4.15D-02 Max=6.94D-01
 AX will form     1 AO Fock derivatives at one time.
 FoFJK:  IHMeth= 1 ICntrl=     0 DoSepK=T KAlg= 1 I1Cent= 0 FoldK=F
 LinEq1:  Iter=  1 NonCon=     1 RMS=1.58D-02 Max=1.36D-01
 FoFJK:  IHMeth= 1 ICntrl=     0 DoSepK=T KAlg= 1 I1Cent= 0 FoldK=F
 LinEq1:  Iter=  2 NonCon=     1 RMS=8.46D-03 Max=1.22D-01
 FoFJK:  IHMeth= 1 ICntrl=     0 DoSepK=T KAlg= 1 I1Cent= 0 FoldK=F
 LinEq1:  Iter=  3 NonCon=     1 RMS=2.16D-03 Max=2.56D-02
 FoFJK:  IHMeth= 1 ICntrl=     0 DoSepK=T KAlg= 1 I1Cent= 0 FoldK=F
 LinEq1:  Iter=  4 NonCon=     1 RMS=1.41D-03 Max=1.97D-02
 FoFJK:  IHMeth= 1 ICntrl=     0 DoSepK=T KAlg= 1 I1Cent= 0 FoldK=F
 LinEq1:  Iter=  5 NonCon=     1 RMS=2.63D-04 Max=2.49D-03
 FoFJK:  IHMeth= 1 ICntrl=     0 DoSepK=T KAlg= 1 I1Cent= 0 FoldK=F
 LinEq1:  Iter=  6 NonCon=     1 RMS=4.10D-05 Max=2.66D-04
 FoFJK:  IHMeth= 1 ICntrl=     0 DoSepK=T KAlg= 1 I1Cent= 0 FoldK=F
 LinEq1:  Iter=  7 NonCon=     1 RMS=6.70D-06 Max=4.34D-05
 FoFJK:  IHMeth= 1 ICntrl=     0 DoSepK=T KAlg= 1 I1Cent= 0 FoldK=F
 LinEq1:  Iter=  8 NonCon=     1 RMS=1.32D-06 Max=1.10D-05
 FoFJK:  IHMeth= 1 ICntrl=     0 DoSepK=T KAlg= 1 I1Cent= 0 FoldK=F
 LinEq1:  Iter=  9 NonCon=     1 RMS=1.86D-07 Max=2.24D-06
 FoFJK:  IHMeth= 1 ICntrl=     0 DoSepK=T KAlg= 1 I1Cent= 0 FoldK=F
 LinEq1:  Iter= 10 NonCon=     1 RMS=3.60D-08 Max=4.20D-07
 FoFJK:  IHMeth= 1 ICntrl=     0 DoSepK=T KAlg= 1 I1Cent= 0 FoldK=F
 LinEq1:  Iter= 11 NonCon=     1 RMS=6.64D-09 Max=5.10D-08
 FoFJK:  IHMeth= 1 ICntrl=     0 DoSepK=T KAlg= 1 I1Cent= 0 FoldK=F
 LinEq1:  Iter= 12 NonCon=     1 RMS=1.08D-09 Max=6.96D-09
 FoFJK:  IHMeth= 1 ICntrl=     0 DoSepK=T KAlg= 1 I1Cent= 0 FoldK=F
 LinEq1:  Iter= 13 NonCon=     1 RMS=1.88D-10 Max=1.07D-09
 FoFJK:  IHMeth= 1 ICntrl=     0 DoSepK=T KAlg= 1 I1Cent= 0 FoldK=F
 LinEq1:  Iter= 14 NonCon=     0 RMS=2.98D-11 Max=2.52D-10
 Linear equations converged to 1.000D-10 1.000D-09 after    14 iterations.
 FoFJK:  IHMeth= 1 ICntrl=     0 DoSepK=T KAlg= 1 I1Cent= 0 FoldK=F
 End of Minotr Frequency-dependent properties file   721 does not exist.
 End of Minotr Frequency-dependent properties file   722 does not exist.

 **********************************************************************

            Population analysis using the SCF density.

 **********************************************************************

 Alpha  occ. eigenvalues --  -19.20592 -14.43921 -10.37654  -1.13251  -1.00140
 Alpha  occ. eigenvalues --   -0.70900  -0.63283  -0.56221  -0.49948  -0.49027
 Alpha  occ. eigenvalues --   -0.35108  -0.34314
 Alpha virt. eigenvalues --    0.01671   0.03328   0.04398   0.04944   0.07805
 Alpha virt. eigenvalues --    0.08200   0.09546   0.12744   0.14289   0.14951
 Alpha virt. eigenvalues --    0.15949   0.18128   0.20969   0.21113   0.21475
 Alpha virt. eigenvalues --    0.26157   0.27057   0.27879   0.29166   0.35807
 Alpha virt. eigenvalues --    0.35958   0.36487   0.39837   0.44236   0.45521
 Alpha virt. eigenvalues --    0.48141   0.49435   0.51473   0.54114   0.54574
 Alpha virt. eigenvalues --    0.55022   0.57584   0.58384   0.60579   0.66859
 Alpha virt. eigenvalues --    0.68992   0.72108   0.75272   0.80440   0.83460
 Alpha virt. eigenvalues --    0.86149   0.87232   0.91455   1.05604   1.07186
 Alpha virt. eigenvalues --    1.08786   1.12408   1.18207   1.22635   1.26539
 Alpha virt. eigenvalues --    1.30111   1.34930   1.42877   1.49236   1.49240
 Alpha virt. eigenvalues --    1.66239   1.69918   1.71600   1.76712   1.80636
 Alpha virt. eigenvalues --    1.83629   1.87524   2.00351   2.03408   2.05066
 Alpha virt. eigenvalues --    2.10199   2.14980   2.22047   2.22796   2.28727
 Alpha virt. eigenvalues --    2.46313   2.51524   2.55134   2.66073   2.69134
 Alpha virt. eigenvalues --    2.86876   3.02817   3.17882   3.31104   3.40263
 Alpha virt. eigenvalues --    3.45509   3.46312   3.71927   3.77736
          Condensed to atoms (all electrons):
              1          2          3          4          5          6
     1  C    4.808898   0.335984   0.326708  -0.192686  -0.131091   0.034611
     2  N    0.335984   5.856118  -0.065821   0.390049   0.349243  -0.027194
     3  O    0.326708  -0.065821   8.386466   0.001783  -0.002294  -0.092568
     4  H   -0.192686   0.390049   0.001783   1.048857  -0.216210   0.057068
     5  H   -0.131091   0.349243  -0.002294  -0.216210   1.054479  -0.010156
     6  H    0.034611  -0.027194  -0.092568   0.057068  -0.010156   1.330329
 Mulliken atomic charges:
              1
     1  C    0.817577
     2  N    0.161620
     3  O   -0.554274
     4  H   -0.088860
     5  H   -0.043972
     6  H   -0.292090
 Sum of Mulliken atomic charges =   0.00000
 Mulliken charges with hydrogens summed into heavy atoms:
              1
     1  C    0.525486
     2  N    0.028788
     3  O   -0.554274
 Sum of Mulliken charges with hydrogens summed into heavy atoms =   0.00000
 Electronic spatial extent (au):  <R**2>=            146.9405
 Charge=              0.0000 electrons
 Dipole moment (field-independent basis, Debye):
    X=              5.1238    Y=              1.2632    Z=              0.0005  Tot=              5.2772
 Quadrupole moment (field-independent basis, Debye-Ang):
   XX=            -18.5724   YY=            -15.2274   ZZ=            -19.2154
   XY=             -1.5257   XZ=              0.0002   YZ=             -0.0001
 Traceless Quadrupole moment (field-independent basis, Debye-Ang):
   XX=             -0.9007   YY=              2.4444   ZZ=             -1.5436
   XY=             -1.5257   XZ=              0.0002   YZ=             -0.0001
 Octapole moment (field-independent basis, Debye-Ang**2):
  XXX=             17.6895  YYY=             -0.6427  ZZZ=              0.0000  XYY=              3.9508
  XXY=              1.2891  XXZ=              0.0016  XZZ=             -0.7030  YZZ=              0.0247
  YYZ=              0.0003  XYZ=              0.0001
 Hexadecapole moment (field-independent basis, Debye-Ang**3):
 XXXX=           -115.0901 YYYY=            -33.8700 ZZZZ=            -19.6085 XXXY=              1.9779
 XXXZ=             -0.0015 YYYX=             -4.5769 YYYZ=             -0.0004 ZZZX=             -0.0036
 ZZZY=              0.0000 XXYY=            -24.0874 XXZZ=            -26.3725 YYZZ=            -10.2570
 XXYZ=              0.0002 YYXZ=             -0.0008 ZZXY=             -0.0017
 N-N= 7.116952588400D+01 E-N=-5.404459692202D+02  KE= 1.687833827230D+02
 D1PCM: PCM CHGder 1st derivatives, ID1Alg=3 FixD1E=F DoIter=F DoCFld=F I1PDM=6.
 Calling FoFJK, ICntrl=      5127 FMM=F ISym2X=0 I1Cent= 0 IOpClX= 0 NMat=1 NMatS=1 NMatT=0.
 FoFJK:  IHMeth= 1 ICntrl=  5127 DoSepK=T KAlg= 1 I1Cent= 0 FoldK=F
 -------------------------------------------------------------------
 Center     Atomic                   Forces (Hartrees/Bohr)
 Number     Number              X              Y              Z
 -------------------------------------------------------------------
      1        6           0.056863083   -0.009751343   -0.000000564
      2        7          -0.037795661    0.007365846   -0.000004526
      3        8          -0.015615710   -0.000243209    0.000000966
      4        1           0.001947818   -0.009899445    0.000001134
      5        1           0.006103277    0.009282268    0.000002226
      6        1          -0.011502807    0.003245883    0.000000764
 -------------------------------------------------------------------
 Cartesian Forces:  Max     0.056863083 RMS     0.017357723

 GradGradGradGradGradGradGradGradGradGradGradGradGradGradGradGradGradGrad
 Berny optimization.
 Internal  Forces:  Max     0.029896631 RMS     0.010521235
 Search for a local minimum.
 Step number   1 out of a maximum of   25
 All quantities printed in internal units (Hartrees-Bohrs-Radians)
 Mixed Optimization -- RFO/linear search
 Second derivative matrix not updated -- first step.
 The second derivative matrix:
                          R1        R2        R3        R4        R5
           R1           0.56693
           R2           0.00000   0.92361
           R3           0.00000   0.00000   0.33098
           R4           0.00000   0.00000   0.00000   0.45754
           R5           0.00000   0.00000   0.00000   0.00000   0.46145
           A1           0.00000   0.00000   0.00000   0.00000   0.00000
           A2           0.00000   0.00000   0.00000   0.00000   0.00000
           A3           0.00000   0.00000   0.00000   0.00000   0.00000
           A4           0.00000   0.00000   0.00000   0.00000   0.00000
           A5           0.00000   0.00000   0.00000   0.00000   0.00000
           A6           0.00000   0.00000   0.00000   0.00000   0.00000
           D1           0.00000   0.00000   0.00000   0.00000   0.00000
           D2           0.00000   0.00000   0.00000   0.00000   0.00000
           D3           0.00000   0.00000   0.00000   0.00000   0.00000
           D4           0.00000   0.00000   0.00000   0.00000   0.00000
                          A1        A2        A3        A4        A5
           A1           0.25000
           A2           0.00000   0.16000
           A3           0.00000   0.00000   0.16000
           A4           0.00000   0.00000   0.00000   0.16000
           A5           0.00000   0.00000   0.00000   0.00000   0.16000
           A6           0.00000   0.00000   0.00000   0.00000   0.00000
           D1           0.00000   0.00000   0.00000   0.00000   0.00000
           D2           0.00000   0.00000   0.00000   0.00000   0.00000
           D3           0.00000   0.00000   0.00000   0.00000   0.00000
           D4           0.00000   0.00000   0.00000   0.00000   0.00000
                          A6        D1        D2        D3        D4
           A6           0.16000
           D1           0.00000   0.02455
           D2           0.00000   0.00000   0.02455
           D3           0.00000   0.00000   0.00000   0.02455
           D4           0.00000   0.00000   0.00000   0.00000   0.02455
     Eigenvalues ---    0.02455   0.02455   0.02455   0.16000   0.16000
     Eigenvalues ---    0.16000   0.22000   0.33098   0.45754   0.46145
     Eigenvalues ---    0.56693   0.923611000.000001000.000001000.00000
 RFO step:  Lambda=-4.42973827D-03 EMin= 2.45504600D-02
 Linear search not attempted -- first point.
 Iteration  1 RMS(Cart)=  0.02686253 RMS(Int)=  0.00078160
 Iteration  2 RMS(Cart)=  0.00081345 RMS(Int)=  0.00000012
 Iteration  3 RMS(Cart)=  0.00000013 RMS(Int)=  0.00000000
 Variable       Old X    -DE/DX   Delta X   Delta X   Delta X     New X
                                 (Linear)    (Quad)   (Total)
    R1        2.53658  -0.02990   0.00000  -0.05233  -0.05233   2.48425
    R2        2.31863   0.01349   0.00000   0.01454   0.01454   2.33317
    R3        2.08880   0.00310   0.00000   0.00923   0.00923   2.09803
    R4        1.91109   0.01005   0.00000   0.02176   0.02176   1.93286
    R5        1.90668   0.01032   0.00000   0.02214   0.02214   1.92883
    A1        2.17634   0.00413   0.00000   0.01841   0.01841   2.19475
    A2        1.97993   0.00998   0.00000   0.06407   0.06407   2.04400
    A3        2.12692  -0.01411   0.00000  -0.08247  -0.08247   2.04444
    A4        2.09837   0.00374   0.00000   0.02275   0.02275   2.12112
    A5        2.10930  -0.00578   0.00000  -0.03517  -0.03517   2.07413
    A6        2.07552   0.00204   0.00000   0.01242   0.01242   2.08794
    D1       -0.00004   0.00000   0.00000   0.00003   0.00003  -0.00001
    D2       -3.14155   0.00000   0.00000   0.00009   0.00009  -3.14145
    D3        3.14156   0.00000   0.00000  -0.00008  -0.00008   3.14148
    D4        0.00005   0.00000   0.00000  -0.00002  -0.00002   0.00004
         Item               Value     Threshold  Converged?
 Maximum Force            0.029897     0.000450     NO 
 RMS     Force            0.010521     0.000300     NO 
 Maximum Displacement     0.054651     0.001800     NO 
 RMS     Displacement     0.027020     0.001200     NO 
 Predicted change in Energy=-2.252860D-03
 GradGradGradGradGradGradGradGradGradGradGradGradGradGradGradGradGradGrad

                          Input orientation:                          
 ---------------------------------------------------------------------
 Center     Atomic      Atomic             Coordinates (Angstroms)
 Number     Number       Type             X           Y           Z
 ---------------------------------------------------------------------
      1          6           0       -0.119486    0.383884   -0.000041
      2          7           0        1.071996   -0.171608    0.000038
      3          8           0       -1.196676   -0.219483   -0.000057
      4          1           0        1.188409   -1.187785    0.000101
      5          1           0        1.896017    0.430720    0.000170
      6          1           0       -0.160489    1.493358    0.000005
 ---------------------------------------------------------------------
                    Distance matrix (angstroms):
                    1          2          3          4          5
     1  C    0.000000
     2  N    1.314610   0.000000
     3  O    1.234662   2.269177   0.000000
     4  H    2.044684   1.022824   2.574148   0.000000
     5  H    2.016047   1.020691   3.160304   1.766428   0.000000
     6  H    1.110231   2.071504   2.001876   3.001342   2.314826
                    6
     6  H    0.000000
 Symmetry turned off by external request.
 Stoichiometry    CH3NO
 Framework group  C1[X(CH3NO)]
 Deg. of freedom    12
 Full point group                 C1      NOp   1
 Rotational constants (GHZ):     74.3254203     11.4624590      9.9309144
 Standard basis: Aug-CC-pVDZ (5D, 7F)
 Integral buffers will be    131072 words long.
 Raffenetti 2 integral format.
 Two-electron integral symmetry is turned off.
    96 basis functions,   162 primitive gaussians,   102 cartesian basis functions
    12 alpha electrons       12 beta electrons
       nuclear repulsion energy        71.3684929255 Hartrees.
 NAtoms=    6 NActive=    6 NUniq=    6 SFac= 7.50D-01 NAtFMM=   80 NAOKFM=F Big=F
 Standard density basis: Auto (5D, 7F)
   327 Density fitting functions
 ------------------------------------------------------------------------------
 Polarizable Continuum Model (PCM)
 =================================
 Model                : PCM.
 Atomic radii         : UFF (Universal Force Field).
 Polarization charges : Total charges.
 Charge compensation  : None.
 Solution method      : Matrix inversion.
 Cavity type          : Scaled VdW (van der Waals Surface) (Alpha=1.100).
 Cavity algorithm     : GePol (No added spheres)
                        Default sphere list used, NSphG=    6.
                        Lebedev-Laikov grids with approx.  5.0 points / Ang**2.
                        Smoothing algorithm: Karplus/York (Gamma=1.0000).
                        Polarization charges: spherical gaussians, with
                                              point-specific exponents (IZeta= 3).
                        Self-potential: point-specific (ISelfS= 7).
                        Self-field    : sphere-specific E.n sum rule (ISelfD= 2).
 1st derivatives      : Analytical E(r).r(x)/FMM algorithm (CHGder, D1EAlg=3).
                        Cavity 1st derivative terms included.
 Solvent              : Water, Eps=  78.355300 Eps(inf)=   1.777849
 ------------------------------------------------------------------------------
 Spheres list:
 ISph  on   Nord    Re0     Alpha      Xe            Ye            Ze
    1   C      1    1.926   1.100     -0.119486      0.383884     -0.000041
    2   N      2    1.830   1.100      1.071996     -0.171608      0.000038
    3   O      3    1.750   1.100     -1.196676     -0.219483     -0.000057
    4   H      4    1.443   1.100      1.188409     -1.187785      0.000101
    5   H      5    1.443   1.100      1.896017      0.430720      0.000170
    6   H      6    1.443   1.100     -0.160489      1.493358      0.000005
 ------------------------------------------------------------------------------
 One-electron integrals computed using PRISM.
 NBasis=    96 RedAO= T  NBF=    96
 NBsUse=    96 1.00D-06 NBFU=    96
 Initial guess read from the read-write file.
 B after Tr=     0.000000    0.000000    0.000000
         Rot=    1.000000    0.000000    0.000000    0.000000 Ang=   0.00 deg.
 Harris functional with IExCor=20419 diagonalized for initial guess.
 ExpMin= 2.97D-02 ExpMax= 1.17D+04 ExpMxC= 4.01D+02 IAcc=3 IRadAn=         5 AccDes= 0.00D+00
 HarFok:  IExCor=20419 AccDes= 0.00D+00 IRadAn=         5 IDoV= 1
 ScaDFX=  1.000000  1.000000  1.000000  1.000000
 FoFCou: FMM=F IPFlag=           0 FMFlag=      100000 FMFlg1=           0
         NFxFlg=           0 DoJE=T BraDBF=F KetDBF=T FulRan=T
         Omega=  0.000000  0.000000  1.000000  0.000000  0.000000 ICntrl=     500 IOpCl=  0
         NMat0=    1 NMatS0=    1 NMatT0=    0 NMatD0=    1 NMtDS0=    0 NMtDT0=    0
         I1Cent=           4 NGrid=           0.
 Symmetry not used in FoFCou.
 Requested convergence on RMS density matrix=1.00D-08 within 128 cycles.
 Requested convergence on MAX density matrix=1.00D-06.
 Requested convergence on             energy=1.00D-06.
 No special actions if energy rises.
 FoFJK:  IHMeth= 1 ICntrl=     0 DoSepK=T KAlg= 1 I1Cent= 0 FoldK=F
 FoFJK:  IHMeth= 1 ICntrl=     0 DoSepK=T KAlg= 1 I1Cent= 0 FoldK=F
 FoFJK:  IHMeth= 1 ICntrl=     0 DoSepK=T KAlg= 1 I1Cent= 0 FoldK=F
 FoFJK:  IHMeth= 1 ICntrl=     0 DoSepK=T KAlg= 1 I1Cent= 0 FoldK=F
 FoFJK:  IHMeth= 1 ICntrl=     0 DoSepK=T KAlg= 1 I1Cent= 0 FoldK=F
 FoFJK:  IHMeth= 1 ICntrl=     0 DoSepK=T KAlg= 1 I1Cent= 0 FoldK=F
 FoFJK:  IHMeth= 1 ICntrl=     0 DoSepK=T KAlg= 1 I1Cent= 0 FoldK=F
 FoFJK:  IHMeth= 1 ICntrl=     0 DoSepK=T KAlg= 1 I1Cent= 0 FoldK=F
 FoFJK:  IHMeth= 1 ICntrl=     0 DoSepK=T KAlg= 1 I1Cent= 0 FoldK=F
 FoFJK:  IHMeth= 1 ICntrl=     0 DoSepK=T KAlg= 1 I1Cent= 0 FoldK=F
 Error on total polarization charges =  0.01064
 SCF Done:  E(RCAM-B3LYP) =  -169.862437733     A.U. after   10 cycles
             Convg  =    0.8213D-08             -V/T =  2.0064
 ExpMin= 2.97D-02 ExpMax= 1.17D+04 ExpMxC= 4.01D+02 IAcc=3 IRadAn=         5 AccDes= 0.00D+00
 HarFok:  IExCor=  205 AccDes= 0.00D+00 IRadAn=         5 IDoV=-2
 ScaDFX=  1.000000  1.000000  1.000000  1.000000
 Range of M.O.s used for correlation:     4    96
 NBasis=    96 NAE=    12 NBE=    12 NFC=     3 NFV=     0
 NROrb=     93 NOA=     9 NOB=     9 NVA=    84 NVB=    84

 **** Warning!!: The largest alpha MO coefficient is  0.19425961D+02

 NEqPCM:  Using equilibrium solvation (IEInf=0, Eps=  78.3553, EpsInf=   1.7778)
 Generating guess from densities on rwf.
 Convergence on wavefunction:    0.000001000000000
 Iteration     1 Dimension    40 NMult    40
 CISAX will form    40 AO SS matrices at one time.
 FoFJK:  IHMeth= 1 ICntrl=     0 DoSepK=T KAlg= 1 I1Cent= 0 FoldK=F
 FoFJK:  IHMeth= 1 ICntrl=     0 DoSepK=T KAlg= 1 I1Cent= 0 FoldK=F
 New state     18 was old state     19
 New state     19 was old state     20
 New state     20 was old state     18
 Iteration     2 Dimension    80 NMult    80
 FoFJK:  IHMeth= 1 ICntrl=     0 DoSepK=T KAlg= 1 I1Cent= 0 FoldK=F
 FoFJK:  IHMeth= 1 ICntrl=     0 DoSepK=T KAlg= 1 I1Cent= 0 FoldK=F
 Iteration     3 Dimension   120 NMult   120
 FoFJK:  IHMeth= 1 ICntrl=     0 DoSepK=T KAlg= 1 I1Cent= 0 FoldK=F
 FoFJK:  IHMeth= 1 ICntrl=     0 DoSepK=T KAlg= 1 I1Cent= 0 FoldK=F
 Iteration     4 Dimension   160 NMult   160
 FoFJK:  IHMeth= 1 ICntrl=     0 DoSepK=T KAlg= 1 I1Cent= 0 FoldK=F
 FoFJK:  IHMeth= 1 ICntrl=     0 DoSepK=T KAlg= 1 I1Cent= 0 FoldK=F
 Iteration     5 Dimension   200 NMult   200
 FoFJK:  IHMeth= 1 ICntrl=     0 DoSepK=T KAlg= 1 I1Cent= 0 FoldK=F
 FoFJK:  IHMeth= 1 ICntrl=     0 DoSepK=T KAlg= 1 I1Cent= 0 FoldK=F
 Iteration     6 Dimension   240 NMult   240
 FoFJK:  IHMeth= 1 ICntrl=     0 DoSepK=T KAlg= 1 I1Cent= 0 FoldK=F
 FoFJK:  IHMeth= 1 ICntrl=     0 DoSepK=T KAlg= 1 I1Cent= 0 FoldK=F
 Iteration     7 Dimension   272 NMult   272
 FoFJK:  IHMeth= 1 ICntrl=     0 DoSepK=T KAlg= 1 I1Cent= 0 FoldK=F
 FoFJK:  IHMeth= 1 ICntrl=     0 DoSepK=T KAlg= 1 I1Cent= 0 FoldK=F
 Iteration     8 Dimension   282 NMult   282
 FoFJK:  IHMeth= 1 ICntrl=     0 DoSepK=T KAlg= 1 I1Cent= 0 FoldK=F
 FoFJK:  IHMeth= 1 ICntrl=     0 DoSepK=T KAlg= 1 I1Cent= 0 FoldK=F
 Iteration     9 Dimension   288 NMult   288
 FoFJK:  IHMeth= 1 ICntrl=     0 DoSepK=T KAlg= 1 I1Cent= 0 FoldK=F
 FoFJK:  IHMeth= 1 ICntrl=     0 DoSepK=T KAlg= 1 I1Cent= 0 FoldK=F
 Iteration    10 Dimension   290 NMult   290
 FoFJK:  IHMeth= 1 ICntrl=     0 DoSepK=T KAlg= 1 I1Cent= 0 FoldK=F
 FoFJK:  IHMeth= 1 ICntrl=     0 DoSepK=T KAlg= 1 I1Cent= 0 FoldK=F
 Iteration    11 Dimension   292 NMult   292
 FoFJK:  IHMeth= 1 ICntrl=     0 DoSepK=T KAlg= 1 I1Cent= 0 FoldK=F
 FoFJK:  IHMeth= 1 ICntrl=     0 DoSepK=T KAlg= 1 I1Cent= 0 FoldK=F
 ***********************************************************************
 Excited states from <AA,BB:AA,BB> singles matrix:
 ***********************************************************************
 
 Ground to excited state transition electric dipole moments (Au):
       state          X           Y           Z        Dip. S.      Osc.
         1         0.0000      0.0000      0.0821      0.0067      0.0009
         2        -0.1269      0.1487      0.0000      0.0382      0.0064
         3         0.0002      0.0000      0.2349      0.0552      0.0096
         4         1.1308      0.3157      0.0000      1.3785      0.2463
         5        -0.6861      0.8098      0.0000      1.1265      0.2081
         6         0.0000     -0.0001      0.1074      0.0115      0.0022
         7         0.8843      0.2403     -0.0001      0.8398      0.1617
         8        -0.0002     -0.0001     -0.4636      0.2149      0.0423
         9        -0.0001      0.0000      0.2047      0.0419      0.0085
        10        -0.1420     -0.0373      0.0000      0.0216      0.0046
        11         0.0898     -0.1283      0.0000      0.0245      0.0053
        12         0.0000      0.0000      0.1664      0.0277      0.0062
        13        -0.0244     -0.0125      0.0000      0.0008      0.0002
        14         0.0000      0.0000     -0.1962      0.0385      0.0088
        15         0.1752      0.0829      0.0000      0.0376      0.0091
        16         0.0001      0.0000     -0.0275      0.0008      0.0002
        17         0.0001     -0.0001     -0.1345      0.0181      0.0045
        18        -0.1043     -0.4057     -0.0001      0.1754      0.0445
        19         0.0000      0.0000      0.1550      0.0240      0.0061
        20        -0.0003      0.0003     -0.1811      0.0328      0.0084
 Ground to excited state transition velocity dipole moments (Au):
       state          X           Y           Z        Dip. S.      Osc.
         1         0.0000      0.0000     -0.0211      0.0004      0.0014
         2         0.0329     -0.0387      0.0000      0.0026      0.0068
         3        -0.0001      0.0000     -0.0589      0.0035      0.0089
         4        -0.2974     -0.0826      0.0000      0.0953      0.2370
         5         0.1880     -0.2213      0.0000      0.0843      0.2029
         6         0.0000      0.0000     -0.0311      0.0010      0.0023
         7        -0.2528     -0.0681      0.0000      0.0685      0.1581
         8         0.0001      0.0000      0.1330      0.0177      0.0400
         9         0.0000      0.0000     -0.0636      0.0040      0.0089
        10         0.0364      0.0093      0.0000      0.0014      0.0030
        11        -0.0279      0.0405      0.0000      0.0024      0.0049
        12         0.0000      0.0000     -0.0533      0.0028      0.0056
        13        -0.0029      0.0043      0.0000      0.0000      0.0001
        14         0.0000      0.0000      0.0679      0.0046      0.0089
        15        -0.0622     -0.0243      0.0000      0.0045      0.0082
        16         0.0000      0.0000      0.0112      0.0001      0.0002
        17         0.0000      0.0000      0.0553      0.0031      0.0054
        18         0.0363      0.1566      0.0000      0.0258      0.0452
        19         0.0000      0.0000     -0.0597      0.0036      0.0062
        20         0.0001     -0.0001      0.0593      0.0035      0.0061
 Ground to excited state transition magnetic dipole moments (Au):
       state          X           Y           Z
         1        -0.9813     -0.3265      0.0000
         2         0.0000      0.0001      0.5010
         3         0.0101      0.5694     -0.0001
         4         0.0000     -0.0001      0.2226
         5         0.0000      0.0000     -0.1909
         6         0.0580     -0.0203      0.0000
         7         0.0000      0.0001      0.5404
         8        -0.0313      0.3135     -0.0001
         9        -0.0598      0.1122      0.0000
        10         0.0000      0.0000      0.0907
        11         0.0000     -0.0001      0.0057
        12         0.0940     -0.2930      0.0000
        13         0.0000     -0.0001      0.2170
        14        -0.0903     -0.5130      0.0000
        15         0.0000      0.0000     -0.3858
        16        -0.9682      0.9112      0.0000
        17         0.1076     -0.5273      0.0001
        18         0.0001     -0.0003     -0.0030
        19         0.0387     -0.2602      0.0000
        20         0.1226     -0.4708     -0.0001
 <0|del|b> * <b|rxdel|0> + <0|del|b> * <b|delr+rdel|0>
 Rotatory Strengths (R) in cgs (10**-40 erg-esu-cm/Gauss)
       state          XX          YY          ZZ    R(velocity)
         1         0.0037      0.0068      0.0085      0.0063
 Total R(velocity) tensor for State=          1
                 1             2             3 
      1   0.366500D-02 -0.196510D-02  0.000000D+00
      2  -0.148603D-01  0.676673D-02  0.000000D+00
      3  -0.292746D+02 -0.112319D+02  0.849969D-02
         2        -0.0195      0.0019     -0.0009     -0.0062
 Total R(velocity) tensor for State=          2
                 1             2             3 
      1  -0.195085D-01 -0.134128D-01 -0.210310D+02
      2   0.112355D-02  0.192455D-02 -0.641785D+01
      3   0.507699D+01  0.431712D+01 -0.919207D-03
         3         0.0143     -0.0004      0.0017      0.0052
 Total R(velocity) tensor for State=          3
                 1             2             3 
      1   0.142986D-01  0.836485D-01 -0.658232D-05
      2   0.866896D-02 -0.415865D-03 -0.741811D-05
      3  -0.128017D+01  0.870159D+01  0.167462D-02
         4         0.0205     -0.0241     -0.0159     -0.0065
 Total R(velocity) tensor for State=          4
                 1             2             3 
      1   0.205367D-01 -0.729888D-01  0.110054D+03
      2   0.659957D-02 -0.241058D-01 -0.376590D+02
      3  -0.171770D+01  0.618681D+01 -0.159288D-01
         5        -0.0171     -0.0009      0.0000     -0.0060
 Total R(velocity) tensor for State=          5
                 1             2             3 
      1  -0.170630D-01 -0.137274D-01  0.675126D+02
      2  -0.147986D-02 -0.896498D-03  0.316929D+02
      3   0.200185D+02  0.170065D+02 -0.437641D-04
         6        -0.0036     -0.0009      0.0005     -0.0014
 Total R(velocity) tensor for State=          6
                 1             2             3 
      1  -0.358556D-02 -0.157666D-02 -0.175566D-05
      2  -0.528918D-02 -0.934431D-03 -0.141261D-05
      3  -0.851195D+00  0.661863D+00  0.459906D-03
         7         0.0005      0.0123      0.0077      0.0068
 Total R(velocity) tensor for State=          7
                 1             2             3 
      1   0.467343D-03  0.518082D-01  0.261182D+03
      2  -0.419623D-02  0.123282D-01 -0.158902D+02
      3  -0.582691D+01  0.216425D+02  0.770621D-02
         8        -0.0183     -0.0134      0.0027     -0.0097
 Total R(velocity) tensor for State=          8
                 1             2             3 
      1  -0.182999D-01 -0.336404D-01  0.130651D-04
      2   0.523802D-02 -0.133538D-01  0.000000D+00
      3   0.601055D+01 -0.296082D+02  0.270036D-02
         9         0.0031      0.0008     -0.0009      0.0010
 Total R(velocity) tensor for State=          9
                 1             2             3 
      1   0.312457D-02 -0.202054D-02  0.000000D+00
      2  -0.108442D-02  0.753077D-03  0.000000D+00
      3  -0.400727D+01  0.389523D+00 -0.896886D-03
        10        -0.0012      0.0015      0.0005      0.0003
 Total R(velocity) tensor for State=         10
                 1             2             3 
      1  -0.124863D-02 -0.128228D-02 -0.885213D+01
      2  -0.611240D-03  0.150678D-02 -0.125551D+01
      3  -0.105402D+01  0.409971D+01  0.499221D-03
        11        -0.0012     -0.0026     -0.0007     -0.0015
 Total R(velocity) tensor for State=         11
                 1             2             3 
      1  -0.124762D-02 -0.467191D-02 -0.143593D+02
      2  -0.426292D-02 -0.256758D-02  0.140481D+01
      3   0.115629D+01  0.797579D+00 -0.713031D-03
        12        -0.0005     -0.0002      0.0001     -0.0002
 Total R(velocity) tensor for State=         12
                 1             2             3 
      1  -0.545308D-03 -0.571558D-02  0.000000D+00
      2   0.600096D-02 -0.169592D-03 -0.113577D-05
      3  -0.142617D+01  0.969713D+00  0.134961D-03
        13         0.0029      0.0039     -0.0002      0.0022
 Total R(velocity) tensor for State=         13
                 1             2             3 
      1   0.285589D-02 -0.248963D-03  0.555875D+00
      2  -0.263987D-02  0.394725D-02 -0.147549D+01
      3   0.692009D+00  0.460307D+00 -0.245158D-03
        14         0.0024     -0.0032      0.0027      0.0006
 Total R(velocity) tensor for State=         14
                 1             2             3 
      1   0.240023D-02  0.101633D-03  0.000000D+00
      2   0.195231D-02 -0.320491D-02  0.000000D+00
      3   0.150761D+02  0.315576D+02  0.267995D-02
        15         0.0002      0.0006     -0.0001      0.0002
 Total R(velocity) tensor for State=         15
                 1             2             3 
      1   0.184596D-03 -0.561070D-02 -0.205363D+02
      2  -0.247881D-03  0.646254D-03  0.474902D-01
      3  -0.166834D+01  0.426958D+01 -0.141252D-03
        16        -0.0015      0.0379      0.0179      0.0181
 Total R(velocity) tensor for State=         16
                 1             2             3 
      1  -0.150740D-02  0.316740D-01  0.000000D+00
      2  -0.183651D-02  0.378829D-01  0.000000D+00
      3   0.695357D+01 -0.818264D+01  0.179279D-01
        17        -0.0152      0.0047     -0.0103     -0.0069
 Total R(velocity) tensor for State=         17
                 1             2             3 
      1  -0.152467D-01 -0.151159D-01  0.000000D+00
      2   0.208111D-02  0.470946D-02 -0.121023D-05
      3  -0.147016D+02  0.838213D+01 -0.102935D-01
        18        -0.0533     -0.0041     -0.0150     -0.0241
 Total R(velocity) tensor for State=         18
                 1             2             3 
      1  -0.532587D-01  0.217775D-01 -0.430017D+02
      2   0.163084D-01 -0.408975D-02  0.138864D+01
      3   0.383064D+02 -0.889221D+01 -0.149746D-01
        19        -0.0016      0.0001     -0.0023     -0.0013
 Total R(velocity) tensor for State=         19
                 1             2             3 
      1  -0.158281D-02  0.260221D-02  0.000000D+00
      2   0.402760D-02  0.107206D-03  0.000000D+00
      3   0.747792D+01 -0.144056D+02 -0.233960D-02
        20         0.0747      0.0064      0.0459      0.0423
 Total R(velocity) tensor for State=         20
                 1             2             3 
      1   0.747232D-01  0.710444D-01  0.162328D-04
      2  -0.151205D-01  0.643266D-02  0.406448D-04
      3  -0.118110D+02  0.117084D+02  0.458588D-01
 1/2[<0|r|b>*<b|rxdel|0> + (<0|rxdel|b>*<b|r|0>)*]
 Rotatory Strengths (R) in cgs (10**-40 erg-esu-cm/Gauss)
       state          XX          YY          ZZ     R(length)     R(au)
         1         0.0120      0.0083      0.0001      0.0068      0.0000
         2         0.0044     -0.0144     -0.0092     -0.0064      0.0000
         3        -0.0014      0.0052      0.0112      0.0050      0.0000
         4        -0.0372      0.0170      0.0007     -0.0065      0.0000
         5        -0.0009     -0.0161     -0.0013     -0.0061      0.0000
         6         0.0006     -0.0013     -0.0032     -0.0013      0.0000
         7         0.0180     -0.0161      0.0199      0.0073      0.0000
         8        -0.0040      0.0175     -0.0434     -0.0100      0.0000
         9        -0.0022      0.0018      0.0034      0.0010      0.0000
        10         0.0026      0.0000     -0.0013      0.0004      0.0000
        11         0.0004     -0.0050     -0.0001     -0.0016      0.0000
        12        -0.0023      0.0051     -0.0035     -0.0002      0.0000
        13        -0.0004     -0.0011      0.0074      0.0020      0.0000
        14         0.0005      0.0052     -0.0040      0.0006      0.0000
        15         0.0041      0.0015     -0.0047      0.0003      0.0000
        16         0.0557     -0.0025     -0.0002      0.0177      0.0000
        17        -0.0048     -0.0251      0.0081     -0.0073      0.0000
        18         0.0066     -0.0771     -0.0002     -0.0236     -0.0001
        19        -0.0007     -0.0021     -0.0009     -0.0012      0.0000
        20         0.0233      0.1079     -0.0065      0.0416      0.0001
  1/2[<0|del|b>*<b|r|0> + (<0|r|b>*<b|del|0>)*] (Au)
       state          X           Y           Z        Dip. S.   Osc.(frdel)
         1         0.0000      0.0000     -0.0017      0.0017      0.0012
         2        -0.0042     -0.0058      0.0000      0.0099      0.0066
         3         0.0000      0.0000     -0.0138      0.0138      0.0092
         4        -0.3363     -0.0261      0.0000      0.3624      0.2416
         5        -0.1290     -0.1792      0.0000      0.3082      0.2055
         6         0.0000      0.0000     -0.0033      0.0033      0.0022
         7        -0.2235     -0.0164      0.0000      0.2399      0.1599
         8         0.0000      0.0000     -0.0617      0.0617      0.0411
         9         0.0000      0.0000     -0.0130      0.0130      0.0087
        10        -0.0052     -0.0003      0.0000      0.0055      0.0037
        11        -0.0025     -0.0052      0.0000      0.0077      0.0051
        12         0.0000      0.0000     -0.0089      0.0089      0.0059
        13         0.0001     -0.0001      0.0000      0.0000      0.0000
        14         0.0000      0.0000     -0.0133      0.0133      0.0089
        15        -0.0109     -0.0020      0.0000      0.0129      0.0086
        16         0.0000      0.0000     -0.0003      0.0003      0.0002
        17         0.0000      0.0000     -0.0074      0.0074      0.0050
        18        -0.0038     -0.0635      0.0000      0.0673      0.0449
        19         0.0000      0.0000     -0.0093      0.0093      0.0062
        20         0.0000      0.0000     -0.0107      0.0107      0.0072
 Ground to excited state transition densities written to RWF  633

 Excitation energies and oscillator strengths:
 
 Excited state symmetry could not be determined.
 Excited State   1:      Singlet-?Sym    5.7494 eV  215.65 nm  f=0.0009  <S**2>=0.000
      12 -> 16         0.66356
      12 -> 17        -0.22302
 
 Excited state symmetry could not be determined.
 Excited State   2:      Singlet-?Sym    6.8492 eV  181.02 nm  f=0.0064  <S**2>=0.000
      11 -> 16         0.13290
      12 -> 13         0.59527
      12 -> 14        -0.12991
      12 -> 15         0.25567
      12 -> 18         0.12930
      12 -> 20        -0.11984
 
 Excited state symmetry could not be determined.
 Excited State   3:      Singlet-?Sym    7.0653 eV  175.48 nm  f=0.0096  <S**2>=0.000
      11 -> 13         0.66588
      11 -> 19        -0.13620
      11 -> 20        -0.13150
 
 Excited state symmetry could not be determined.
 Excited State   4:      Singlet-?Sym    7.2935 eV  169.99 nm  f=0.2463  <S**2>=0.000
      11 -> 16         0.46629
      11 -> 17        -0.23129
      12 -> 14         0.42025
      12 -> 19        -0.16022
 
 Excited state symmetry could not be determined.
 Excited State   5:      Singlet-?Sym    7.5417 eV  164.40 nm  f=0.2081  <S**2>=0.000
      11 -> 16        -0.31418
      11 -> 17         0.17857
      12 -> 14         0.46578
      12 -> 15         0.31092
      12 -> 18         0.16411
 
 Excited state symmetry could not be determined.
 Excited State   6:      Singlet-?Sym    7.7563 eV  159.85 nm  f=0.0022  <S**2>=0.000
      11 -> 14         0.64840
      11 -> 15         0.13783
      11 -> 21        -0.15732
 
 Excited state symmetry could not be determined.
 Excited State   7:      Singlet-?Sym    7.8613 eV  157.71 nm  f=0.1617  <S**2>=0.000
      11 -> 16         0.19357
      11 -> 17        -0.14212
      12 -> 13        -0.34219
      12 -> 14        -0.18176
      12 -> 15         0.47695
      12 -> 18         0.21822
 This state for optimization and/or second-order correction.
 Copying the excited state density for this state as the 1-particle RhoCI density.
 
 Excited state symmetry could not be determined.
 Excited State   8:      Singlet-?Sym    8.0350 eV  154.31 nm  f=0.0423  <S**2>=0.000
      11 -> 14        -0.13006
      11 -> 15         0.64875
      11 -> 18         0.17670
      11 -> 23        -0.10941
 
 Excited state symmetry could not be determined.
 Excited State   9:      Singlet-?Sym    8.2386 eV  150.49 nm  f=0.0085  <S**2>=0.000
      12 -> 16         0.21842
      12 -> 17         0.66154
 
 Excited state symmetry could not be determined.
 Excited State  10:      Singlet-?Sym    8.6686 eV  143.03 nm  f=0.0046  <S**2>=0.000
      11 -> 16         0.31965
      11 -> 17         0.61784
 
 Excited state symmetry could not be determined.
 Excited State  11:      Singlet-?Sym    8.8890 eV  139.48 nm  f=0.0053  <S**2>=0.000
      12 -> 15         0.29560
      12 -> 18        -0.60839
      12 -> 19         0.14056
 
 Excited state symmetry could not be determined.
 Excited State  12:      Singlet-?Sym    9.1282 eV  135.83 nm  f=0.0062  <S**2>=0.000
      11 -> 15         0.15063
      11 -> 18        -0.64995
      11 -> 24         0.13744
 
 Excited state symmetry could not be determined.
 Excited State  13:      Singlet-?Sym    9.2065 eV  134.67 nm  f=0.0002  <S**2>=0.000
      11 -> 16         0.10215
      12 -> 14         0.14865
      12 -> 18         0.12155
      12 -> 19         0.63967
      12 -> 23         0.10375
 
 Excited state symmetry could not be determined.
 Excited State  14:      Singlet-?Sym    9.3798 eV  132.18 nm  f=0.0088  <S**2>=0.000
      11 -> 13         0.11486
      11 -> 19         0.66607
 
 Excited state symmetry could not be determined.
 Excited State  15:      Singlet-?Sym    9.8497 eV  125.88 nm  f=0.0091  <S**2>=0.000
      12 -> 13         0.10815
      12 -> 14        -0.12179
      12 -> 20         0.58629
      12 -> 23         0.30146
 
 Excited state symmetry could not be determined.
 Excited State  16:      Singlet-?Sym   10.0471 eV  123.40 nm  f=0.0002  <S**2>=0.000
       9 -> 16         0.65255
       9 -> 17        -0.21756
 
 Excited state symmetry could not be determined.
 Excited State  17:      Singlet-?Sym   10.2476 eV  120.99 nm  f=0.0045  <S**2>=0.000
      11 -> 13         0.14991
      11 -> 20         0.63603
      11 -> 21         0.14472
      11 -> 23         0.14168
 
 Excited state symmetry could not be determined.
 Excited State  18:      Singlet-?Sym   10.3615 eV  119.66 nm  f=0.0445  <S**2>=0.000
      11 -> 22        -0.13709
      12 -> 14         0.10856
      12 -> 20        -0.14827
      12 -> 21         0.46064
      12 -> 23         0.39927
      12 -> 24         0.18736
      12 -> 27        -0.12646
 
 Excited state symmetry could not be determined.
 Excited State  19:      Singlet-?Sym   10.4087 eV  119.12 nm  f=0.0061  <S**2>=0.000
      11 -> 23         0.14490
      12 -> 22         0.65226
      12 -> 26        -0.14920
 
 Excited state symmetry could not be determined.
 Excited State  20:      Singlet-?Sym   10.4479 eV  118.67 nm  f=0.0084  <S**2>=0.000
      11 -> 20        -0.15850
      11 -> 21         0.13308
      11 -> 23         0.56126
      11 -> 24         0.22220
      11 -> 25        -0.13847
      12 -> 22        -0.14615
 SavETr:  write IOETrn=   770 NScale= 10 NData=  16 NLR=1 LETran=     370.
 FoFJK:  IHMeth= 1 ICntrl=     0 DoSepK=T KAlg= 1 I1Cent= 0 FoldK=F
 FoFJK:  IHMeth= 1 ICntrl=     0 DoSepK=T KAlg= 1 I1Cent= 0 FoldK=F
          IDoAtm=111111
 NEqPCM:  Using equilibrium solvation (IEInf=0, Eps=  78.3553, EpsInf=   1.7778)
          Differentiating once with respect to electric field.
                with respect to dipole field.
          Differentiating once with respect to nuclear coordinates.
          There are     1 degrees of freedom in the 1st order CPHF.  IDoFFX=0.
 FoFJK:  IHMeth= 1 ICntrl=     0 DoSepK=T KAlg= 1 I1Cent= 0 FoldK=F
 LinEq1:  Iter=  0 NonCon=     1 RMS=4.09D-02 Max=6.79D-01
 AX will form     1 AO Fock derivatives at one time.
 FoFJK:  IHMeth= 1 ICntrl=     0 DoSepK=T KAlg= 1 I1Cent= 0 FoldK=F
 LinEq1:  Iter=  1 NonCon=     1 RMS=1.53D-02 Max=1.20D-01
 FoFJK:  IHMeth= 1 ICntrl=     0 DoSepK=T KAlg= 1 I1Cent= 0 FoldK=F
 LinEq1:  Iter=  2 NonCon=     1 RMS=8.52D-03 Max=1.13D-01
 FoFJK:  IHMeth= 1 ICntrl=     0 DoSepK=T KAlg= 1 I1Cent= 0 FoldK=F
 LinEq1:  Iter=  3 NonCon=     1 RMS=2.22D-03 Max=2.74D-02
 FoFJK:  IHMeth= 1 ICntrl=     0 DoSepK=T KAlg= 1 I1Cent= 0 FoldK=F
 LinEq1:  Iter=  4 NonCon=     1 RMS=1.37D-03 Max=1.80D-02
 FoFJK:  IHMeth= 1 ICntrl=     0 DoSepK=T KAlg= 1 I1Cent= 0 FoldK=F
 LinEq1:  Iter=  5 NonCon=     1 RMS=2.71D-04 Max=2.30D-03
 FoFJK:  IHMeth= 1 ICntrl=     0 DoSepK=T KAlg= 1 I1Cent= 0 FoldK=F
 LinEq1:  Iter=  6 NonCon=     1 RMS=4.60D-05 Max=3.14D-04
 FoFJK:  IHMeth= 1 ICntrl=     0 DoSepK=T KAlg= 1 I1Cent= 0 FoldK=F
 LinEq1:  Iter=  7 NonCon=     1 RMS=8.18D-06 Max=4.52D-05
 FoFJK:  IHMeth= 1 ICntrl=     0 DoSepK=T KAlg= 1 I1Cent= 0 FoldK=F
 LinEq1:  Iter=  8 NonCon=     1 RMS=1.50D-06 Max=1.07D-05
 FoFJK:  IHMeth= 1 ICntrl=     0 DoSepK=T KAlg= 1 I1Cent= 0 FoldK=F
 LinEq1:  Iter=  9 NonCon=     1 RMS=2.11D-07 Max=2.29D-06
 FoFJK:  IHMeth= 1 ICntrl=     0 DoSepK=T KAlg= 1 I1Cent= 0 FoldK=F
 LinEq1:  Iter= 10 NonCon=     1 RMS=4.24D-08 Max=4.66D-07
 FoFJK:  IHMeth= 1 ICntrl=     0 DoSepK=T KAlg= 1 I1Cent= 0 FoldK=F
 LinEq1:  Iter= 11 NonCon=     1 RMS=8.12D-09 Max=6.20D-08
 FoFJK:  IHMeth= 1 ICntrl=     0 DoSepK=T KAlg= 1 I1Cent= 0 FoldK=F
 LinEq1:  Iter= 12 NonCon=     1 RMS=1.28D-09 Max=7.84D-09
 FoFJK:  IHMeth= 1 ICntrl=     0 DoSepK=T KAlg= 1 I1Cent= 0 FoldK=F
 LinEq1:  Iter= 13 NonCon=     1 RMS=1.99D-10 Max=1.11D-09
 FoFJK:  IHMeth= 1 ICntrl=     0 DoSepK=T KAlg= 1 I1Cent= 0 FoldK=F
 LinEq1:  Iter= 14 NonCon=     0 RMS=3.05D-11 Max=2.07D-10
 Linear equations converged to 1.000D-10 1.000D-09 after    14 iterations.
 FoFJK:  IHMeth= 1 ICntrl=     0 DoSepK=T KAlg= 1 I1Cent= 0 FoldK=F
 End of Minotr Frequency-dependent properties file   721 does not exist.
 End of Minotr Frequency-dependent properties file   722 does not exist.
 D1PCM: PCM CHGder 1st derivatives, ID1Alg=3 FixD1E=F DoIter=F DoCFld=F I1PDM=6.
[...]
 Excited State  10:      Singlet-?Sym    8.6508 eV  143.32 nm  f=0.0046  <S**2>=0.000
      11 -> 16         0.29130
      11 -> 17         0.62949
 
 Excited state symmetry could not be determined.
 Excited State  11:      Singlet-?Sym    8.8081 eV  140.76 nm  f=0.0050  <S**2>=0.000
      12 -> 15         0.30116
      12 -> 18        -0.60588
      12 -> 19         0.13774
 
 Excited state symmetry could not be determined.
 Excited State  12:      Singlet-?Sym    9.1038 eV  136.19 nm  f=0.0065  <S**2>=0.000
      11 -> 15         0.15803
      11 -> 18        -0.64598
      11 -> 24         0.12886
 
 Excited state symmetry could not be determined.
 Excited State  13:      Singlet-?Sym    9.1436 eV  135.60 nm  f=0.0000  <S**2>=0.000
      11 -> 16         0.10722
      12 -> 14         0.14949
      12 -> 18         0.11545
      12 -> 19         0.63716
      12 -> 23         0.10972
 
 Excited state symmetry could not be determined.
 Excited State  14:      Singlet-?Sym    9.3607 eV  132.45 nm  f=0.0069  <S**2>=0.000
      11 -> 13         0.11120
      11 -> 19         0.66375
 
 Excited state symmetry could not be determined.
 Excited State  15:      Singlet-?Sym    9.7862 eV  126.69 nm  f=0.0095  <S**2>=0.000
      12 -> 13         0.10901
      12 -> 14        -0.12882
      12 -> 20         0.58626
      12 -> 21        -0.11768
      12 -> 23         0.28870
 
 Excited state symmetry could not be determined.
 Excited State  16:      Singlet-?Sym    9.8343 eV  126.07 nm  f=0.0000  <S**2>=0.000
      10 -> 16         0.66527
      10 -> 17        -0.19460
 
 Excited state symmetry could not be determined.
 Excited State  17:      Singlet-?Sym   10.2319 eV  121.17 nm  f=0.0031  <S**2>=0.000
      11 -> 13         0.15187
      11 -> 20         0.63966
      11 -> 21         0.12197
      11 -> 23         0.13877
 
 Excited state symmetry could not be determined.
 Excited State  18:      Singlet-?Sym   10.2876 eV  120.52 nm  f=0.0378  <S**2>=0.000
      11 -> 22        -0.12171
      12 -> 14         0.11135
      12 -> 21         0.53074
      12 -> 23         0.34696
      12 -> 24         0.14234
      12 -> 27        -0.14716
 
 Excited state symmetry could not be determined.
 Excited State  19:      Singlet-?Sym   10.3444 eV  119.86 nm  f=0.0085  <S**2>=0.000
      12 -> 22         0.67168
      12 -> 26        -0.16310
 
 Excited state symmetry could not be determined.
 Excited State  20:      Singlet-?Sym   10.4223 eV  118.96 nm  f=0.0812  <S**2>=0.000
      12 -> 19        -0.11756
      12 -> 20        -0.29597
      12 -> 21        -0.36289
      12 -> 23         0.34660
      12 -> 24         0.33331
 SavETr:  write IOETrn=   770 NScale= 10 NData=  16 NLR=1 LETran=     370.
 FoFJK:  IHMeth= 1 ICntrl=     0 DoSepK=T KAlg= 1 I1Cent= 0 FoldK=F
 FoFJK:  IHMeth= 1 ICntrl=     0 DoSepK=T KAlg= 1 I1Cent= 0 FoldK=F
          IDoAtm=111111
 NEqPCM:  Using equilibrium solvation (IEInf=0, Eps=  78.3553, EpsInf=   1.7778)
          Differentiating once with respect to electric field.
                with respect to dipole field.
          Differentiating once with respect to nuclear coordinates.
          There are     1 degrees of freedom in the 1st order CPHF.  IDoFFX=0.
 FoFJK:  IHMeth= 1 ICntrl=     0 DoSepK=T KAlg= 1 I1Cent= 0 FoldK=F
 LinEq1:  Iter=  0 NonCon=     1 RMS=4.27D-02 Max=7.43D-01
 AX will form     1 AO Fock derivatives at one time.
 FoFJK:  IHMeth= 1 ICntrl=     0 DoSepK=T KAlg= 1 I1Cent= 0 FoldK=F
 LinEq1:  Iter=  1 NonCon=     1 RMS=1.58D-02 Max=1.24D-01
 FoFJK:  IHMeth= 1 ICntrl=     0 DoSepK=T KAlg= 1 I1Cent= 0 FoldK=F
 LinEq1:  Iter=  2 NonCon=     1 RMS=8.76D-03 Max=1.21D-01
 FoFJK:  IHMeth= 1 ICntrl=     0 DoSepK=T KAlg= 1 I1Cent= 0 FoldK=F
 LinEq1:  Iter=  3 NonCon=     1 RMS=2.23D-03 Max=2.69D-02
 FoFJK:  IHMeth= 1 ICntrl=     0 DoSepK=T KAlg= 1 I1Cent= 0 FoldK=F
 LinEq1:  Iter=  4 NonCon=     1 RMS=1.39D-03 Max=1.80D-02
 FoFJK:  IHMeth= 1 ICntrl=     0 DoSepK=T KAlg= 1 I1Cent= 0 FoldK=F
 LinEq1:  Iter=  5 NonCon=     1 RMS=2.90D-04 Max=2.43D-03
 FoFJK:  IHMeth= 1 ICntrl=     0 DoSepK=T KAlg= 1 I1Cent= 0 FoldK=F
 LinEq1:  Iter=  6 NonCon=     1 RMS=5.22D-05 Max=3.61D-04
 FoFJK:  IHMeth= 1 ICntrl=     0 DoSepK=T KAlg= 1 I1Cent= 0 FoldK=F
 LinEq1:  Iter=  7 NonCon=     1 RMS=9.49D-06 Max=5.67D-05
 FoFJK:  IHMeth= 1 ICntrl=     0 DoSepK=T KAlg= 1 I1Cent= 0 FoldK=F
 LinEq1:  Iter=  8 NonCon=     1 RMS=1.64D-06 Max=1.14D-05
 FoFJK:  IHMeth= 1 ICntrl=     0 DoSepK=T KAlg= 1 I1Cent= 0 FoldK=F
 LinEq1:  Iter=  9 NonCon=     1 RMS=2.34D-07 Max=2.53D-06
 FoFJK:  IHMeth= 1 ICntrl=     0 DoSepK=T KAlg= 1 I1Cent= 0 FoldK=F
 LinEq1:  Iter= 10 NonCon=     1 RMS=4.85D-08 Max=5.34D-07
 FoFJK:  IHMeth= 1 ICntrl=     0 DoSepK=T KAlg= 1 I1Cent= 0 FoldK=F
 LinEq1:  Iter= 11 NonCon=     1 RMS=9.06D-09 Max=6.97D-08
 FoFJK:  IHMeth= 1 ICntrl=     0 DoSepK=T KAlg= 1 I1Cent= 0 FoldK=F
 LinEq1:  Iter= 12 NonCon=     1 RMS=1.39D-09 Max=8.80D-09
 FoFJK:  IHMeth= 1 ICntrl=     0 DoSepK=T KAlg= 1 I1Cent= 0 FoldK=F
 LinEq1:  Iter= 13 NonCon=     1 RMS=2.09D-10 Max=1.18D-09
 FoFJK:  IHMeth= 1 ICntrl=     0 DoSepK=T KAlg= 1 I1Cent= 0 FoldK=F
 LinEq1:  Iter= 14 NonCon=     0 RMS=3.26D-11 Max=2.13D-10
 Linear equations converged to 1.000D-10 1.000D-09 after    14 iterations.
 FoFJK:  IHMeth= 1 ICntrl=     0 DoSepK=T KAlg= 1 I1Cent= 0 FoldK=F
 End of Minotr Frequency-dependent properties file   721 does not exist.
 End of Minotr Frequency-dependent properties file   722 does not exist.
 D1PCM: PCM CHGder 1st derivatives, ID1Alg=3 FixD1E=F DoIter=F DoCFld=F I1PDM=6.
 Calling FoFJK, ICntrl=      5127 FMM=F ISym2X=0 I1Cent= 0 IOpClX= 0 NMat=1 NMatS=1 NMatT=0.
 FoFJK:  IHMeth= 1 ICntrl=  5127 DoSepK=T KAlg= 1 I1Cent= 0 FoldK=F
 -------------------------------------------------------------------
 Center     Atomic                   Forces (Hartrees/Bohr)
 Number     Number              X              Y              Z
 -------------------------------------------------------------------
      1        6           0.000027392   -0.000061893   -0.000014181
      2        7          -0.000213402    0.000100470    0.000003952
      3        8           0.000105915    0.000018773    0.000003550
      4        1           0.000014163    0.000011950    0.000001571
      5        1           0.000009616   -0.000031687   -0.000001189
      6        1           0.000056316   -0.000037614    0.000006297
 -------------------------------------------------------------------
 Cartesian Forces:  Max     0.000213402 RMS     0.000065864

 GradGradGradGradGradGradGradGradGradGradGradGradGradGradGradGradGradGrad
 Berny optimization.
 Using GEDIIS/GDIIS optimizer.
 Internal  Forces:  Max     0.000206077 RMS     0.000064557
 Search for a local minimum.
 Step number   5 out of a maximum of   25
 All quantities printed in internal units (Hartrees-Bohrs-Radians)
 Mixed Optimization -- En-DIIS/RFO-DIIS
 Swaping is turned off.
 Update second derivatives using D2CorX and points    1    2    3    4    5
 DE= -1.86D-06 DEPred=-1.74D-06 R= 1.07D+00
 SS=  1.41D+00  RLast= 3.68D-03 DXNew= 6.6078D-01 1.1053D-02
 Trust test= 1.07D+00 RLast= 3.68D-03 DXMaxT set to 3.93D-01
 The second derivative matrix:
                          R1        R2        R3        R4        R5
           R1           0.61250
           R2           0.23300   0.75176
           R3          -0.03027   0.02111   0.32472
           R4          -0.02658  -0.02200  -0.00149   0.46251
           R5          -0.03099  -0.02255  -0.00278   0.00254   0.46264
           A1          -0.02197   0.02982  -0.01205  -0.01189  -0.01224
           A2           0.02951  -0.03011  -0.00082  -0.00857  -0.00970
           A3          -0.00652   0.04653   0.00100   0.00311   0.00283
           A4          -0.00019  -0.01831   0.00171   0.00192   0.00187
           A5           0.02948   0.00067   0.00267  -0.00118  -0.00060
           A6          -0.02929   0.01764  -0.00438  -0.00074  -0.00127
           D1          -0.00023  -0.00101   0.00014   0.00010   0.00022
           D2          -0.00031  -0.00106   0.00014   0.00011   0.00024
           D3           0.00047   0.00177  -0.00024  -0.00018  -0.00040
           D4           0.00039   0.00172  -0.00024  -0.00018  -0.00038
                          A1        A2        A3        A4        A5
           A1           0.23224
           A2          -0.00531   0.14877
           A3           0.00574   0.01471   0.15336
           A4           0.00021  -0.00353   0.00074   0.16004
           A5           0.00791   0.00291  -0.00059  -0.00153   0.16027
           A6          -0.00812   0.00062  -0.00015   0.00150   0.00127
           D1           0.00030  -0.00009  -0.00023   0.00002  -0.00015
           D2           0.00031  -0.00010  -0.00027   0.00003  -0.00015
           D3          -0.00052   0.00017   0.00043  -0.00004   0.00026
           D4          -0.00051   0.00016   0.00040  -0.00004   0.00025
                          A6        D1        D2        D3        D4
           A6           0.15724
           D1           0.00012   0.02456
           D2           0.00013   0.00001   0.02456
           D3          -0.00021  -0.00002  -0.00002   0.02458
           D4          -0.00021  -0.00001  -0.00002   0.00003   0.02457
     Eigenvalues ---    0.02455   0.02455   0.02460   0.12341   0.14789
     Eigenvalues ---    0.16128   0.20718   0.31856   0.45007   0.46009
     Eigenvalues ---    0.47710   0.932241000.000001000.000001000.00000
 En-DIIS/RFO-DIIS IScMMF=        0 using points:     5    4
 RFO step:  Lambda=-8.80283920D-08.
 DIIS coeffs:      1.07539     -0.07539
 Iteration  1 RMS(Cart)=  0.00023797 RMS(Int)=  0.00000004
 Iteration  2 RMS(Cart)=  0.00000003 RMS(Int)=  0.00000001
 Variable       Old X    -DE/DX   Delta X   Delta X   Delta X     New X
                                  (DIIS)     (GDIIS)  (Total)
    R1        2.47035  -0.00021  -0.00005  -0.00030  -0.00035   2.47000
    R2        2.36727  -0.00010   0.00011  -0.00016  -0.00004   2.36723
    R3        2.09367  -0.00004  -0.00006  -0.00012  -0.00018   2.09349
    R4        1.93603  -0.00001  -0.00003  -0.00004  -0.00006   1.93597
    R5        1.93269  -0.00001  -0.00005  -0.00001  -0.00006   1.93264
    A1        2.19893  -0.00003  -0.00014  -0.00007  -0.00022   2.19871
    A2        2.09060  -0.00003   0.00003  -0.00027  -0.00024   2.09037
    A3        1.99366   0.00007   0.00011   0.00034   0.00045   1.99411
    A4        2.12994   0.00001   0.00000   0.00006   0.00006   2.13001
    A5        2.07767   0.00002   0.00010   0.00011   0.00021   2.07788
    A6        2.07557  -0.00003  -0.00010  -0.00017  -0.00027   2.07530
    D1       -0.00007   0.00000  -0.00001   0.00014   0.00014   0.00007
    D2        3.14152   0.00000  -0.00001   0.00016   0.00015  -3.14151
    D3       -3.14147  -0.00001   0.00002  -0.00026  -0.00025   3.14146
    D4        0.00012  -0.00001   0.00001  -0.00025  -0.00023  -0.00011
         Item               Value     Threshold  Converged?
 Maximum Force            0.000206     0.000450     YES
 RMS     Force            0.000065     0.000300     YES
 Maximum Displacement     0.000462     0.001800     YES
 RMS     Displacement     0.000238     0.001200     YES
 Predicted change in Energy=-7.330519D-08
 Optimization completed.
    -- Stationary point found.
                           ----------------------------
                           !   Optimized Parameters   !
                           ! (Angstroms and Degrees)  !
 --------------------------                            --------------------------
 ! Name  Definition              Value          Derivative Info.                !
 --------------------------------------------------------------------------------
 ! R1    R(1,2)                  1.3073         -DE/DX =   -0.0002              !
 ! R2    R(1,3)                  1.2527         -DE/DX =   -0.0001              !
 ! R3    R(1,6)                  1.1079         -DE/DX =    0.0                 !
 ! R4    R(2,4)                  1.0245         -DE/DX =    0.0                 !
 ! R5    R(2,5)                  1.0227         -DE/DX =    0.0                 !
 ! A1    A(2,1,3)              125.9892         -DE/DX =    0.0                 !
 ! A2    A(2,1,6)              119.7827         -DE/DX =    0.0                 !
 ! A3    A(3,1,6)              114.228          -DE/DX =    0.0001              !
 ! A4    A(1,2,4)              122.0367         -DE/DX =    0.0                 !
 ! A5    A(1,2,5)              119.042          -DE/DX =    0.0                 !
 ! A6    A(4,2,5)              118.9213         -DE/DX =    0.0                 !
 ! D1    D(3,1,2,4)             -0.004          -DE/DX =    0.0                 !
 ! D2    D(3,1,2,5)           -180.0039         -DE/DX =    0.0                 !
 ! D3    D(6,1,2,4)            180.0068         -DE/DX =    0.0                 !
 ! D4    D(6,1,2,5)              0.0068         -DE/DX =    0.0                 !
 --------------------------------------------------------------------------------
 GradGradGradGradGradGradGradGradGradGradGradGradGradGradGradGradGradGrad

                          Input orientation:                          
 ---------------------------------------------------------------------
 Center     Atomic      Atomic             Coordinates (Angstroms)
 Number     Number       Type             X           Y           Z
 ---------------------------------------------------------------------
      1          6           0       -0.104590    0.388699    0.000048
      2          7           0        1.075815   -0.173047    0.000088
      3          8           0       -1.204849   -0.210219   -0.000091
      4          1           0        1.193343   -1.190787    0.000066
      5          1           0        1.908353    0.420985    0.000145
      6          1           0       -0.188302    1.493454   -0.000039
 ---------------------------------------------------------------------
                    Distance matrix (angstroms):
                    1          2          3          4          5
     1  C    0.000000
     2  N    1.307255   0.000000
     3  O    1.252706   2.280967   0.000000
     4  H    2.044360   1.024504   2.590915   0.000000
     5  H    2.013201   1.022738   3.176546   1.763249   0.000000
     6  H    1.107922   2.091703   1.983902   3.018956   2.355027
                    6
     6  H    0.000000
 Symmetry turned off by external request.
 Stoichiometry    CH3NO
 Framework group  C1[X(CH3NO)]
 Deg. of freedom    12
 Full point group                 C1      NOp   1
 Rotational constants (GHZ):     74.4153666     11.3423251      9.8421875

 **********************************************************************

            Population analysis using the SCF density.

 **********************************************************************

 Alpha  occ. eigenvalues --  -19.19852 -14.44801 -10.37445  -1.11963  -1.00907
 Alpha  occ. eigenvalues --   -0.70986  -0.63655  -0.56856  -0.48948  -0.48663
 Alpha  occ. eigenvalues --   -0.35068  -0.33556
 Alpha virt. eigenvalues --    0.01611   0.03246   0.04390   0.05072   0.07730
 Alpha virt. eigenvalues --    0.08215   0.09508   0.12667   0.14033   0.14998
 Alpha virt. eigenvalues --    0.15958   0.17895   0.20812   0.21062   0.21222
 Alpha virt. eigenvalues --    0.25418   0.26997   0.28164   0.29010   0.35566
 Alpha virt. eigenvalues --    0.36669   0.37041   0.39297   0.44384   0.45554
 Alpha virt. eigenvalues --    0.47701   0.50278   0.51275   0.52476   0.54343
 Alpha virt. eigenvalues --    0.55944   0.57085   0.57966   0.62256   0.66595
 Alpha virt. eigenvalues --    0.69342   0.71987   0.74905   0.80024   0.83283
 Alpha virt. eigenvalues --    0.85343   0.87371   0.92462   1.05162   1.07340
 Alpha virt. eigenvalues --    1.08899   1.13309   1.18282   1.23528   1.28508
 Alpha virt. eigenvalues --    1.29531   1.35951   1.41755   1.48038   1.48921
 Alpha virt. eigenvalues --    1.66565   1.72342   1.73124   1.76277   1.79671
 Alpha virt. eigenvalues --    1.82087   1.89149   1.97790   2.03167   2.03395
 Alpha virt. eigenvalues --    2.08382   2.14805   2.18191   2.22419   2.27249
 Alpha virt. eigenvalues --    2.48571   2.50240   2.56162   2.63406   2.69180
 Alpha virt. eigenvalues --    2.87087   3.05965   3.16820   3.32522   3.40896
 Alpha virt. eigenvalues --    3.46128   3.47547   3.68204   3.76093
          Condensed to atoms (all electrons):
              1          2          3          4          5          6
     1  C    4.813700   0.358490   0.298336  -0.205765  -0.152535   0.080575
     2  N    0.358490   5.817831  -0.063406   0.404562   0.351365  -0.026913
     3  O    0.298336  -0.063406   8.473087  -0.000950   0.000643  -0.104150
     4  H   -0.205765   0.404562  -0.000950   1.018969  -0.195516   0.051623
     5  H   -0.152535   0.351365   0.000643  -0.195516   1.007783  -0.011591
     6  H    0.080575  -0.026913  -0.104150   0.051623  -0.011591   1.299095
 Mulliken atomic charges:
              1
     1  C    0.807199
     2  N    0.158071
     3  O   -0.603560
     4  H   -0.072922
     5  H   -0.000149
     6  H   -0.288639
 Sum of Mulliken atomic charges =   0.00000
 Mulliken charges with hydrogens summed into heavy atoms:
              1
     1  C    0.518560
     2  N    0.085000
     3  O   -0.603560
 Sum of Mulliken charges with hydrogens summed into heavy atoms =   0.00000
 Electronic spatial extent (au):  <R**2>=            147.0986
 Charge=              0.0000 electrons
 Dipole moment (field-independent basis, Debye):
    X=              5.6158    Y=              1.1507    Z=              0.0004  Tot=              5.7325
 Quadrupole moment (field-independent basis, Debye-Ang):
   XX=            -18.5493   YY=            -15.1159   ZZ=            -19.2403
   XY=             -1.6817   XZ=              0.0000   YZ=             -0.0001
 Traceless Quadrupole moment (field-independent basis, Debye-Ang):
   XX=             -0.9142   YY=              2.5193   ZZ=             -1.6051
   XY=             -1.6817   XZ=              0.0000   YZ=             -0.0001
 Octapole moment (field-independent basis, Debye-Ang**2):
  XXX=             18.6871  YYY=             -1.1909  ZZZ=             -0.0010  XYY=              4.0831
  XXY=              1.0113  XXZ=              0.0009  XZZ=             -0.4387  YZZ=             -0.0803
  YYZ=             -0.0002  XYZ=              0.0002
 Hexadecapole moment (field-independent basis, Debye-Ang**3):
 XXXX=           -115.3877 YYYY=            -33.4173 ZZZZ=            -19.6199 XXXY=              2.8084
 XXXZ=             -0.0029 YYYX=             -4.7407 YYYZ=             -0.0008 ZZZX=             -0.0046
 ZZZY=             -0.0002 XXYY=            -23.8727 XXZZ=            -26.5135 YYZZ=            -10.2685
 XXYZ=              0.0003 YYXZ=             -0.0011 ZZXY=              0.2297
 N-N= 7.107502970255D+01 E-N=-5.402524853377D+02  KE= 1.687405756680D+02
 1\1\GINC-CLODOMIRA\FOpt\RTD-CAM-B3LYP-FC\Aug-CC-pVDZ\C1H3N1O1\DIEGOA\2
 8-Oct-2019\0\\# cam-b3lyp/aug-cc-pvdz opt nosymm td(root=7,nstates=20)
  SCRF=PCM int(grid=ultrafine)\\Title\\0,1\C,-0.1045898289,0.3886992805
 ,0.0000478886\N,1.0758153584,-0.1730469547,0.0000884078\O,-1.204848956
 7,-0.2102185441,-0.0000910417\H,1.1933430225,-1.1907869738,0.000065811
 8\H,1.9083525988,0.420984814,0.0001452945\H,-0.188302194,1.4934543781,
 -0.0000393609\\Version=EM64L-G09RevA.01\HF=-169.8603042\RMSD=2.609e-09
 \RMSF=6.586e-05\Dipole=-0.7417674,0.2020199,-0.0000666\PG=C01 [X(C1H3N
 1O1)]\\@


 MAN IS A SINGULAR CREATURE.  HE HAS A SET OF GIFTS
 WHICH MAKE HIM UNIQUE AMONG THE ANIMALS: SO THAT, 
 UNLIKE THEM, HE IS NOT A FIGURE IN THE LANDSCAPE --
 HE IS A SHAPER OF THE LANDSCAPE.

                       -- JACOB BRONOWSKI
 Job cpu time:  0 days  1 hours  3 minutes 18.5 seconds.
 File lengths (MBytes):  RWF=     52 Int=      0 D2E=      0 Chk=      8 Scr=      1
 Normal termination of Gaussian 09 at Mon Oct 28 13:46:00 2019.
