Title                                                                   
FOpt      RTD-CAM-B3LYP-FC                                            Aug-CC-pVDZ         
Number of atoms                            I                6
Info1-9                                    I   N=           9
          14          14           0           0           0         100
           2         218           1
Charge                                     I                0
Multiplicity                               I                1
Number of electrons                        I               24
Number of alpha electrons                  I               12
Number of beta electrons                   I               12
Number of basis functions                  I               96
Number of independent functions            I               96
Number of point charges in /Mol/           I                0
Number of translation vectors              I                0
Atomic numbers                             I   N=           6
           6           7           8           1           1           1
Nuclear charges                            R   N=           6
  6.00000000E+00  7.00000000E+00  8.00000000E+00  1.00000000E+00  1.00000000E+00
  1.00000000E+00
Current cartesian coordinates              R   N=          18
 -1.97646133E-01  7.34535188E-01  9.04962586E-05  2.03299640E+00 -3.27011352E-01
  1.67066529E-04 -2.27683456E+00 -3.97255476E-01 -1.72043951E-04  2.25509150E+00
 -2.25026126E+00  1.24366244E-04  3.60626378E+00  7.95546005E-01  2.74566836E-04
 -3.55839577E-01  2.82221977E+00 -7.43813460E-05
Force Field                                I                0
Int Atom Types                             I   N=           6
           0           0           0           0           0           0
MM charges                                 R   N=           6
  0.00000000E+00  0.00000000E+00  0.00000000E+00  0.00000000E+00  0.00000000E+00
  0.00000000E+00
Integer atomic weights                     I   N=           6
          12          14          16           1           1           1
Real atomic weights                        R   N=           6
  1.20000000E+01  1.40030740E+01  1.59949146E+01  1.00782504E+00  1.00782504E+00
  1.00782504E+00
Atom fragment info                         I   N=           6
           0           0           0           0           0           0
Atom residue num                           I   N=           6
           0           0           0           0           0           0
Nuclear spins                              I   N=           6
           0           2           0           1           1           1
Nuclear ZEff                               R   N=           6
 -3.60000000E+00 -4.55000000E+00 -5.60000000E+00 -1.00000000E+00 -1.00000000E+00
 -1.00000000E+00
Nuclear QMom                               R   N=           6
  0.00000000E+00  2.04400000E+00  0.00000000E+00  0.00000000E+00  0.00000000E+00
  0.00000000E+00
Nuclear GFac                               R   N=           6
  0.00000000E+00  4.03761000E-01  0.00000000E+00  2.79284600E+00  2.79284600E+00
  2.79284600E+00
MicOpt                                     I   N=           6
          -1          -1          -1          -1          -1          -1
Number of contracted shells                I               42
Number of primitive shells                 I               90
Pure/Cartesian d shells                    I                0
Pure/Cartesian f shells                    I                0
Highest angular momentum                   I                2
Largest degree of contraction              I                7
Shell types                                I   N=          42
           0           0           0           0           1           1
           1          -2          -2           0           0           0
           0           1           1           1          -2          -2
           0           0           0           0           1           1
           1          -2          -2           0           0           0
           1           1           0           0           0           1
           1           0           0           0           1           1
Number of primitives per shell             I   N=          42
           7           7           1           1           3           1
           1           1           1           7           7           1
           1           3           1           1           1           1
           7           7           1           1           3           1
           1           1           1           3           1           1
           1           1           3           1           1           1
           1           3           1           1           1           1
Shell to atom map                          I   N=          42
           1           1           1           1           1           1
           1           1           1           2           2           2
           2           2           2           2           2           2
           3           3           3           3           3           3
           3           3           3           4           4           4
           4           4           5           5           5           5
           5           6           6           6           6           6
Primitive exponents                        R   N=          90
  6.66500000E+03  1.00000000E+03  2.28000000E+02  6.47100000E+01  2.10600000E+01
  7.49500000E+00  2.79700000E+00  6.66500000E+03  2.28000000E+02  6.47100000E+01
  2.10600000E+01  7.49500000E+00  2.79700000E+00  5.21500000E-01  1.59600000E-01
  4.69000000E-02  9.43900000E+00  2.00200000E+00  5.45600000E-01  1.51700000E-01
  4.04100000E-02  5.50000000E-01  1.51000000E-01  9.04600000E+03  1.35700000E+03
  3.09300000E+02  8.77300000E+01  2.85600000E+01  1.02100000E+01  3.83800000E+00
  9.04600000E+03  3.09300000E+02  8.77300000E+01  2.85600000E+01  1.02100000E+01
  3.83800000E+00  7.46600000E-01  2.24800000E-01  6.12400000E-02  1.35500000E+01
  2.91700000E+00  7.97300000E-01  2.18500000E-01  5.61100000E-02  8.17000000E-01
  2.30000000E-01  1.17200000E+04  1.75900000E+03  4.00800000E+02  1.13700000E+02
  3.70300000E+01  1.32700000E+01  5.02500000E+00  1.17200000E+04  4.00800000E+02
  1.13700000E+02  3.70300000E+01  1.32700000E+01  5.02500000E+00  1.01300000E+00
  3.02300000E-01  7.89600000E-02  1.77000000E+01  3.85400000E+00  1.04600000E+00
  2.75300000E-01  6.85600000E-02  1.18500000E+00  3.32000000E-01  1.30100000E+01
  1.96200000E+00  4.44600000E-01  1.22000000E-01  2.97400000E-02  7.27000000E-01
  1.41000000E-01  1.30100000E+01  1.96200000E+00  4.44600000E-01  1.22000000E-01
  2.97400000E-02  7.27000000E-01  1.41000000E-01  1.30100000E+01  1.96200000E+00
  4.44600000E-01  1.22000000E-01  2.97400000E-02  7.27000000E-01  1.41000000E-01
Contraction coefficients                   R   N=          90
  6.93516317E-04  5.34150243E-03  2.71366714E-02  1.01992385E-01  2.75508636E-01
  4.51086433E-01  2.87565745E-01  7.73354740E-06  2.78072137E-04 -2.57875654E-03
 -8.95087684E-03 -1.06058855E-01 -1.31517686E-01  1.09948660E+00  1.00000000E+00
  1.00000000E+00  5.69792516E-02  3.13207212E-01  7.60376742E-01  1.00000000E+00
  1.00000000E+00  1.00000000E+00  1.00000000E+00  7.01708743E-04  5.40299880E-03
  2.74729510E-02  1.03514580E-01  2.79586579E-01  4.51317241E-01  2.80626875E-01
  7.77446797E-06  3.00742072E-04 -2.80016549E-03 -9.89708505E-03 -1.14331114E-01
 -1.18162383E-01  1.09786885E+00  1.00000000E+00  1.00000000E+00  5.89056768E-02
  3.20461107E-01  7.53042062E-01  1.00000000E+00  1.00000000E+00  1.00000000E+00
  1.00000000E+00  7.11864434E-04  5.48520199E-03  2.79099296E-02  1.05133208E-01
  2.84002490E-01  4.51673946E-01  2.73208126E-01  7.69030046E-06  3.13484579E-04
 -2.96614853E-03 -1.08753543E-02 -1.20753817E-01 -1.06275264E-01  1.09597548E+00
  1.00000000E+00  1.00000000E+00  6.26791663E-02  3.33536566E-01  7.41239642E-01
  1.00000000E+00  1.00000000E+00  1.00000000E+00  1.00000000E+00  3.34987264E-02
  2.34800801E-01  8.13682958E-01  1.00000000E+00  1.00000000E+00  1.00000000E+00
  1.00000000E+00  3.34987264E-02  2.34800801E-01  8.13682958E-01  1.00000000E+00
  1.00000000E+00  1.00000000E+00  1.00000000E+00  3.34987264E-02  2.34800801E-01
  8.13682958E-01  1.00000000E+00  1.00000000E+00  1.00000000E+00  1.00000000E+00
Coordinates of each shell                  R   N=         126
 -1.97646133E-01  7.34535188E-01  9.04962586E-05 -1.97646133E-01  7.34535188E-01
  9.04962586E-05 -1.97646133E-01  7.34535188E-01  9.04962586E-05 -1.97646133E-01
  7.34535188E-01  9.04962586E-05 -1.97646133E-01  7.34535188E-01  9.04962586E-05
 -1.97646133E-01  7.34535188E-01  9.04962586E-05 -1.97646133E-01  7.34535188E-01
  9.04962586E-05 -1.97646133E-01  7.34535188E-01  9.04962586E-05 -1.97646133E-01
  7.34535188E-01  9.04962586E-05  2.03299640E+00 -3.27011352E-01  1.67066529E-04
  2.03299640E+00 -3.27011352E-01  1.67066529E-04  2.03299640E+00 -3.27011352E-01
  1.67066529E-04  2.03299640E+00 -3.27011352E-01  1.67066529E-04  2.03299640E+00
 -3.27011352E-01  1.67066529E-04  2.03299640E+00 -3.27011352E-01  1.67066529E-04
  2.03299640E+00 -3.27011352E-01  1.67066529E-04  2.03299640E+00 -3.27011352E-01
  1.67066529E-04  2.03299640E+00 -3.27011352E-01  1.67066529E-04 -2.27683456E+00
 -3.97255476E-01 -1.72043951E-04 -2.27683456E+00 -3.97255476E-01 -1.72043951E-04
 -2.27683456E+00 -3.97255476E-01 -1.72043951E-04 -2.27683456E+00 -3.97255476E-01
 -1.72043951E-04 -2.27683456E+00 -3.97255476E-01 -1.72043951E-04 -2.27683456E+00
 -3.97255476E-01 -1.72043951E-04 -2.27683456E+00 -3.97255476E-01 -1.72043951E-04
 -2.27683456E+00 -3.97255476E-01 -1.72043951E-04 -2.27683456E+00 -3.97255476E-01
 -1.72043951E-04  2.25509150E+00 -2.25026126E+00  1.24366244E-04  2.25509150E+00
 -2.25026126E+00  1.24366244E-04  2.25509150E+00 -2.25026126E+00  1.24366244E-04
  2.25509150E+00 -2.25026126E+00  1.24366244E-04  2.25509150E+00 -2.25026126E+00
  1.24366244E-04  3.60626378E+00  7.95546005E-01  2.74566836E-04  3.60626378E+00
  7.95546005E-01  2.74566836E-04  3.60626378E+00  7.95546005E-01  2.74566836E-04
  3.60626378E+00  7.95546005E-01  2.74566836E-04  3.60626378E+00  7.95546005E-01
  2.74566836E-04 -3.55839577E-01  2.82221977E+00 -7.43813460E-05 -3.55839577E-01
  2.82221977E+00 -7.43813460E-05 -3.55839577E-01  2.82221977E+00 -7.43813460E-05
 -3.55839577E-01  2.82221977E+00 -7.43813460E-05 -3.55839577E-01  2.82221977E+00
 -7.43813460E-05
Density Number of contracted shells        I               84
Density Number of primitive shells         I               84
Density Pure/Cartesian d shells            I                0
Density Pure/Cartesian f shells            I                0
Density Highest angular momentum           I                3
Density Largest degree of contraction      I                1
Density Shell types                        I   N=          84
           0           0           0           0           0          -1
          -2          -1          -2          -1          -2          -3
          -1          -2          -3          -1          -2          -3
           0           0           0           0           0          -1
          -2          -1          -2          -1          -2          -3
          -1          -2          -3          -1          -2          -3
           0           0           0           0           0          -1
          -2          -1          -2          -1          -2          -3
          -1          -2          -3          -1          -2          -3
           0           0          -1          -2          -1          -2
          -1          -2          -1          -2           0           0
          -1          -2          -1          -2          -1          -2
          -1          -2           0           0          -1          -2
          -1          -2          -1          -2          -1          -2
Density Number of primitives per shell     I   N=          84
           1           1           1           1           1           1
           1           1           1           1           1           1
           1           1           1           1           1           1
           1           1           1           1           1           1
           1           1           1           1           1           1
           1           1           1           1           1           1
           1           1           1           1           1           1
           1           1           1           1           1           1
           1           1           1           1           1           1
           1           1           1           1           1           1
           1           1           1           1           1           1
           1           1           1           1           1           1
           1           1           1           1           1           1
           1           1           1           1           1           1
Density Shell to atom map                  I   N=          84
           1           1           1           1           1           1
           1           1           1           1           1           1
           1           1           1           1           1           1
           2           2           2           2           2           2
           2           2           2           2           2           2
           2           2           2           2           2           2
           3           3           3           3           3           3
           3           3           3           3           3           3
           3           3           3           3           3           3
           4           4           4           4           4           4
           4           4           4           4           5           5
           5           5           5           5           5           5
           5           5           6           6           6           6
           6           6           6           6           6           6
Density Primitive exponents                R   N=          84
  1.33300000E+04  2.00000000E+03  4.56000000E+02  1.29420000E+02  4.21200000E+01
  1.68220457E+01  1.68220457E+01  4.73269226E+00  4.73269226E+00  1.06897221E+00
  1.06897221E+00  1.06897221E+00  3.10840122E-01  3.10840122E-01  3.10840122E-01
  8.70684558E-02  8.70684558E-02  8.70684558E-02  1.80920000E+04  2.71400000E+03
  6.18600000E+02  1.75460000E+02  5.71200000E+01  2.35240728E+01  2.35240728E+01
  6.69191931E+00  6.69191931E+00  1.55251192E+00  1.55251192E+00  1.55251192E+00
  4.45796600E-01  4.45796600E-01  4.45796600E-01  1.17237816E-01  1.17237816E-01
  1.17237816E-01  2.34400000E+04  3.51800000E+03  8.01600000E+02  2.27400000E+02
  7.40600000E+01  3.06515252E+01  3.06515252E+01  8.80144306E+00  8.80144306E+00
  2.20889185E+00  2.20889185E+00  2.20889185E+00  5.90645853E-01  5.90645853E-01
  5.90645853E-01  1.47152949E-01  1.47152949E-01  1.47152949E-01  2.60200000E+01
  3.92400000E+00  1.45400000E+00  1.45400000E+00  8.89200000E-01  8.89200000E-01
  2.62312790E-01  2.62312790E-01  5.94800000E-02  5.94800000E-02  2.60200000E+01
  3.92400000E+00  1.45400000E+00  1.45400000E+00  8.89200000E-01  8.89200000E-01
  2.62312790E-01  2.62312790E-01  5.94800000E-02  5.94800000E-02  2.60200000E+01
  3.92400000E+00  1.45400000E+00  1.45400000E+00  8.89200000E-01  8.89200000E-01
  2.62312790E-01  2.62312790E-01  5.94800000E-02  5.94800000E-02
Density Contraction coefficients           R   N=          84
  1.00000000E+00  1.00000000E+00  1.00000000E+00  1.00000000E+00  1.00000000E+00
  1.00000000E+00  1.00000000E+00  1.00000000E+00  1.00000000E+00  1.00000000E+00
  1.00000000E+00  1.00000000E+00  1.00000000E+00  1.00000000E+00  1.00000000E+00
  1.00000000E+00  1.00000000E+00  1.00000000E+00  1.00000000E+00  1.00000000E+00
  1.00000000E+00  1.00000000E+00  1.00000000E+00  1.00000000E+00  1.00000000E+00
  1.00000000E+00  1.00000000E+00  1.00000000E+00  1.00000000E+00  1.00000000E+00
  1.00000000E+00  1.00000000E+00  1.00000000E+00  1.00000000E+00  1.00000000E+00
  1.00000000E+00  1.00000000E+00  1.00000000E+00  1.00000000E+00  1.00000000E+00
  1.00000000E+00  1.00000000E+00  1.00000000E+00  1.00000000E+00  1.00000000E+00
  1.00000000E+00  1.00000000E+00  1.00000000E+00  1.00000000E+00  1.00000000E+00
  1.00000000E+00  1.00000000E+00  1.00000000E+00  1.00000000E+00  1.00000000E+00
  1.00000000E+00  1.00000000E+00  1.00000000E+00  1.00000000E+00  1.00000000E+00
  1.00000000E+00  1.00000000E+00  1.00000000E+00  1.00000000E+00  1.00000000E+00
  1.00000000E+00  1.00000000E+00  1.00000000E+00  1.00000000E+00  1.00000000E+00
  1.00000000E+00  1.00000000E+00  1.00000000E+00  1.00000000E+00  1.00000000E+00
  1.00000000E+00  1.00000000E+00  1.00000000E+00  1.00000000E+00  1.00000000E+00
  1.00000000E+00  1.00000000E+00  1.00000000E+00  1.00000000E+00
Density P(S=P) Contraction coefficients    R   N=          84
  0.00000000E+00  0.00000000E+00  0.00000000E+00  0.00000000E+00  0.00000000E+00
  1.00000000E+00  0.00000000E+00  1.00000000E+00  0.00000000E+00  1.00000000E+00
  0.00000000E+00  0.00000000E+00  1.00000000E+00  0.00000000E+00  0.00000000E+00
  1.00000000E+00  0.00000000E+00  0.00000000E+00  0.00000000E+00  0.00000000E+00
  0.00000000E+00  0.00000000E+00  0.00000000E+00  1.00000000E+00  0.00000000E+00
  1.00000000E+00  0.00000000E+00  1.00000000E+00  0.00000000E+00  0.00000000E+00
  1.00000000E+00  0.00000000E+00  0.00000000E+00  1.00000000E+00  0.00000000E+00
  0.00000000E+00  0.00000000E+00  0.00000000E+00  0.00000000E+00  0.00000000E+00
  0.00000000E+00  1.00000000E+00  0.00000000E+00  1.00000000E+00  0.00000000E+00
  1.00000000E+00  0.00000000E+00  0.00000000E+00  1.00000000E+00  0.00000000E+00
  0.00000000E+00  1.00000000E+00  0.00000000E+00  0.00000000E+00  0.00000000E+00
  0.00000000E+00  1.00000000E+00  0.00000000E+00  1.00000000E+00  0.00000000E+00
  1.00000000E+00  0.00000000E+00  1.00000000E+00  0.00000000E+00  0.00000000E+00
  0.00000000E+00  1.00000000E+00  0.00000000E+00  1.00000000E+00  0.00000000E+00
  1.00000000E+00  0.00000000E+00  1.00000000E+00  0.00000000E+00  0.00000000E+00
  0.00000000E+00  1.00000000E+00  0.00000000E+00  1.00000000E+00  0.00000000E+00
  1.00000000E+00  0.00000000E+00  1.00000000E+00  0.00000000E+00
Density Coordinates of each shell          R   N=         252
 -1.97646133E-01  7.34535188E-01  9.04962586E-05 -1.97646133E-01  7.34535188E-01
  9.04962586E-05 -1.97646133E-01  7.34535188E-01  9.04962586E-05 -1.97646133E-01
  7.34535188E-01  9.04962586E-05 -1.97646133E-01  7.34535188E-01  9.04962586E-05
 -1.97646133E-01  7.34535188E-01  9.04962586E-05 -1.97646133E-01  7.34535188E-01
  9.04962586E-05 -1.97646133E-01  7.34535188E-01  9.04962586E-05 -1.97646133E-01
  7.34535188E-01  9.04962586E-05 -1.97646133E-01  7.34535188E-01  9.04962586E-05
 -1.97646133E-01  7.34535188E-01  9.04962586E-05 -1.97646133E-01  7.34535188E-01
  9.04962586E-05 -1.97646133E-01  7.34535188E-01  9.04962586E-05 -1.97646133E-01
  7.34535188E-01  9.04962586E-05 -1.97646133E-01  7.34535188E-01  9.04962586E-05
 -1.97646133E-01  7.34535188E-01  9.04962586E-05 -1.97646133E-01  7.34535188E-01
  9.04962586E-05 -1.97646133E-01  7.34535188E-01  9.04962586E-05  2.03299640E+00
 -3.27011352E-01  1.67066529E-04  2.03299640E+00 -3.27011352E-01  1.67066529E-04
  2.03299640E+00 -3.27011352E-01  1.67066529E-04  2.03299640E+00 -3.27011352E-01
  1.67066529E-04  2.03299640E+00 -3.27011352E-01  1.67066529E-04  2.03299640E+00
 -3.27011352E-01  1.67066529E-04  2.03299640E+00 -3.27011352E-01  1.67066529E-04
  2.03299640E+00 -3.27011352E-01  1.67066529E-04  2.03299640E+00 -3.27011352E-01
  1.67066529E-04  2.03299640E+00 -3.27011352E-01  1.67066529E-04  2.03299640E+00
 -3.27011352E-01  1.67066529E-04  2.03299640E+00 -3.27011352E-01  1.67066529E-04
  2.03299640E+00 -3.27011352E-01  1.67066529E-04  2.03299640E+00 -3.27011352E-01
  1.67066529E-04  2.03299640E+00 -3.27011352E-01  1.67066529E-04  2.03299640E+00
 -3.27011352E-01  1.67066529E-04  2.03299640E+00 -3.27011352E-01  1.67066529E-04
  2.03299640E+00 -3.27011352E-01  1.67066529E-04 -2.27683456E+00 -3.97255476E-01
 -1.72043951E-04 -2.27683456E+00 -3.97255476E-01 -1.72043951E-04 -2.27683456E+00
 -3.97255476E-01 -1.72043951E-04 -2.27683456E+00 -3.97255476E-01 -1.72043951E-04
 -2.27683456E+00 -3.97255476E-01 -1.72043951E-04 -2.27683456E+00 -3.97255476E-01
 -1.72043951E-04 -2.27683456E+00 -3.97255476E-01 -1.72043951E-04 -2.27683456E+00
 -3.97255476E-01 -1.72043951E-04 -2.27683456E+00 -3.97255476E-01 -1.72043951E-04
 -2.27683456E+00 -3.97255476E-01 -1.72043951E-04 -2.27683456E+00 -3.97255476E-01
 -1.72043951E-04 -2.27683456E+00 -3.97255476E-01 -1.72043951E-04 -2.27683456E+00
 -3.97255476E-01 -1.72043951E-04 -2.27683456E+00 -3.97255476E-01 -1.72043951E-04
 -2.27683456E+00 -3.97255476E-01 -1.72043951E-04 -2.27683456E+00 -3.97255476E-01
 -1.72043951E-04 -2.27683456E+00 -3.97255476E-01 -1.72043951E-04 -2.27683456E+00
 -3.97255476E-01 -1.72043951E-04  2.25509150E+00 -2.25026126E+00  1.24366244E-04
  2.25509150E+00 -2.25026126E+00  1.24366244E-04  2.25509150E+00 -2.25026126E+00
  1.24366244E-04  2.25509150E+00 -2.25026126E+00  1.24366244E-04  2.25509150E+00
 -2.25026126E+00  1.24366244E-04  2.25509150E+00 -2.25026126E+00  1.24366244E-04
  2.25509150E+00 -2.25026126E+00  1.24366244E-04  2.25509150E+00 -2.25026126E+00
  1.24366244E-04  2.25509150E+00 -2.25026126E+00  1.24366244E-04  2.25509150E+00
 -2.25026126E+00  1.24366244E-04  3.60626378E+00  7.95546005E-01  2.74566836E-04
  3.60626378E+00  7.95546005E-01  2.74566836E-04  3.60626378E+00  7.95546005E-01
  2.74566836E-04  3.60626378E+00  7.95546005E-01  2.74566836E-04  3.60626378E+00
  7.95546005E-01  2.74566836E-04  3.60626378E+00  7.95546005E-01  2.74566836E-04
  3.60626378E+00  7.95546005E-01  2.74566836E-04  3.60626378E+00  7.95546005E-01
  2.74566836E-04  3.60626378E+00  7.95546005E-01  2.74566836E-04  3.60626378E+00
  7.95546005E-01  2.74566836E-04 -3.55839577E-01  2.82221977E+00 -7.43813460E-05
 -3.55839577E-01  2.82221977E+00 -7.43813460E-05 -3.55839577E-01  2.82221977E+00
 -7.43813460E-05 -3.55839577E-01  2.82221977E+00 -7.43813460E-05 -3.55839577E-01
  2.82221977E+00 -7.43813460E-05 -3.55839577E-01  2.82221977E+00 -7.43813460E-05
 -3.55839577E-01  2.82221977E+00 -7.43813460E-05 -3.55839577E-01  2.82221977E+00
 -7.43813460E-05 -3.55839577E-01  2.82221977E+00 -7.43813460E-05 -3.55839577E-01
  2.82221977E+00 -7.43813460E-05
Constraint Structure                       R   N=          18
 -2.80446696E-01  7.35880143E-01 -1.51178091E-05  2.03313745E+00 -3.04100398E-01
  1.13383568E-04 -2.26580242E+00 -4.61796155E-01 -1.43619186E-04  2.23366952E+00
 -2.20464521E+00  1.73854804E-04  3.59611482E+00  7.87938319E-01  2.91017824E-04
 -2.52641266E-01  2.82449617E+00 -9.44863066E-06
Num ILSW                                   I              100
ILSW                                       I   N=         100
           0           0           0           0           2           0
           0           0           0           0       20419          -1
           5           0           0           0           0           0
           0           0           1           0           1           0
           1           1           0           0           0           0
           0           0      100000           0          -1           0
           0           0           0           0           0           0
           0           0           0           1           0           0
           0           0           1           0           0           0
           0           0           4          40           0           0
           0           0          40           0           0           0
           0           0           0           0           0           0
           0           0           0           0           0           0
           0           0           0           0           0           0
           0           0           0           0           0           0
           0           0           0           0           0           0
           0           0           0           0
Num RLSW                                   I               40
RLSW                                       R   N=          40
  1.00000000E+00  1.00000000E+00  1.00000000E+00  8.10000000E-01  1.00000000E+00
  0.00000000E+00  3.30000000E-01  1.90000000E-01  0.00000000E+00  4.60000000E-01
  0.00000000E+00  3.30000000E-01  1.90000000E-01  0.00000000E+00  4.60000000E-01
  0.00000000E+00  0.00000000E+00  1.00000000E+00  0.00000000E+00  0.00000000E+00
  0.00000000E+00  0.00000000E+00  1.00000000E+00  0.00000000E+00  0.00000000E+00
  0.00000000E+00  0.00000000E+00  1.00000000E+00  0.00000000E+00  0.00000000E+00
  0.00000000E+00  0.00000000E+00  0.00000000E+00  0.00000000E+00  0.00000000E+00
  0.00000000E+00  0.00000000E+00  0.00000000E+00  1.00000000E+00  1.00000000E+00
MxBond                                     I                3
NBond                                      I   N=           6
           3           3           1           1           1           1
IBond                                      I   N=          18
           2           3           6           1           4           5
           1           0           0           2           0           0
           2           0           0           1           0           0
RBond                                      R   N=          18
  1.41000000E+00  2.00000000E+00  1.00000000E+00  1.41000000E+00  1.00000000E+00
  1.00000000E+00  2.00000000E+00  0.00000000E+00  0.00000000E+00  1.00000000E+00
  0.00000000E+00  0.00000000E+00  1.00000000E+00  0.00000000E+00  0.00000000E+00
  1.00000000E+00  0.00000000E+00  0.00000000E+00
Virial Ratio                               R      2.006635798807385E+00
SCF Energy                                 R     -1.698603041787808E+02
CIS Energy                                 R     -1.695740871485868E+02
Total Energy                               R     -1.695740871485868E+02
Post-SCF wavefunction norm                 R      1.000000000000000E+00
RMS Force                                  R      6.586395777055382E-05
RMS Density                                R      2.608788176399666E-09
External E-field                           R   N=          35
  0.00000000E+00  0.00000000E+00  0.00000000E+00  0.00000000E+00  0.00000000E+00
  0.00000000E+00  0.00000000E+00  0.00000000E+00  0.00000000E+00  0.00000000E+00
  0.00000000E+00  0.00000000E+00  0.00000000E+00  0.00000000E+00  0.00000000E+00
  0.00000000E+00  0.00000000E+00  0.00000000E+00  0.00000000E+00  0.00000000E+00
  0.00000000E+00  0.00000000E+00  0.00000000E+00  0.00000000E+00  0.00000000E+00
  0.00000000E+00  0.00000000E+00  0.00000000E+00  0.00000000E+00  0.00000000E+00
  0.00000000E+00  0.00000000E+00  0.00000000E+00  0.00000000E+00  0.00000000E+00
IOpCl                                      I                0
IROHF                                      I                0
Alpha Orbital Energies                     R   N=          96
 -1.91985249E+01 -1.44480093E+01 -1.03744546E+01 -1.11963005E+00 -1.00907064E+00
 -7.09857953E-01 -6.36551780E-01 -5.68556216E-01 -4.89482132E-01 -4.86634558E-01
 -3.50682609E-01 -3.35556953E-01  1.61073978E-02  3.24643228E-02  4.39038595E-02
  5.07237139E-02  7.72971121E-02  8.21491005E-02  9.50762441E-02  1.26672717E-01
  1.40328669E-01  1.49984433E-01  1.59578828E-01  1.78952839E-01  2.08117255E-01
  2.10624981E-01  2.12224718E-01  2.54179521E-01  2.69974857E-01  2.81636699E-01
  2.90102517E-01  3.55661406E-01  3.66686192E-01  3.70409957E-01  3.92965576E-01
  4.43843794E-01  4.55537561E-01  4.77014399E-01  5.02779427E-01  5.12753551E-01
  5.24761459E-01  5.43429616E-01  5.59438511E-01  5.70848587E-01  5.79664737E-01
  6.22557539E-01  6.65951723E-01  6.93420280E-01  7.19870620E-01  7.49045143E-01
  8.00235179E-01  8.32834886E-01  8.53432012E-01  8.73708398E-01  9.24618492E-01
  1.05161919E+00  1.07339652E+00  1.08899278E+00  1.13309400E+00  1.18282325E+00
  1.23527743E+00  1.28508021E+00  1.29530687E+00  1.35951236E+00  1.41755197E+00
  1.48038164E+00  1.48921243E+00  1.66565414E+00  1.72342163E+00  1.73124397E+00
  1.76277489E+00  1.79670869E+00  1.82087488E+00  1.89148876E+00  1.97789977E+00
  2.03166533E+00  2.03394650E+00  2.08382499E+00  2.14805476E+00  2.18191073E+00
  2.22419361E+00  2.27248788E+00  2.48571066E+00  2.50239666E+00  2.56162237E+00
  2.63405515E+00  2.69179819E+00  2.87087008E+00  3.05964566E+00  3.16819638E+00
  3.32522390E+00  3.40896460E+00  3.46127833E+00  3.47547297E+00  3.68204146E+00
  3.76093100E+00
Alpha MO coefficients                      R   N=        9216
  1.44187988E-04  9.61847275E-04  2.08742334E-02  4.47398275E-03 -7.72890063E-04
 -5.02336781E-04 -2.00958886E-07 -1.15100951E-02 -9.03856431E-03 -1.40157719E-06
 -1.32241412E-03  6.17257881E-04 -1.33510484E-07 -5.09143097E-04 -1.18112219E-08
 -1.24375210E-07 -4.90978526E-04 -6.10905203E-04 -3.20291519E-03  8.76064095E-07
  1.07968329E-06  4.49895931E-03  8.61776690E-03  4.48376443E-05  1.84979779E-04
  1.34666310E-03  6.22962560E-03  9.56447563E-05  2.26523154E-05 -2.14654780E-08
  2.79635742E-03 -1.79839276E-03  3.66112632E-07 -2.14287389E-03  8.53437558E-04
 -3.28412992E-08 -4.30480840E-06 -1.53472847E-08  2.50465130E-08 -4.07009913E-04
 -1.33579688E-04  1.34476808E-03 -2.11043468E-07 -1.02122303E-07 -2.76437164E-04
  1.11193365E-03  9.96862123E-01  2.60985351E-02 -3.00868907E-02 -1.48897015E-02
  1.69925714E-03  8.34824367E-04  2.62880406E-07 -8.03301709E-03 -3.93574044E-03
 -1.26645812E-06 -3.33357168E-03 -1.72584837E-03 -4.03186343E-07  3.53982733E-05
  1.02922943E-08  1.84122514E-08  4.87357508E-05  1.18009282E-04  3.43035569E-04
 -2.51329924E-07 -1.72125109E-07 -6.08887903E-04 -1.02157249E-03  7.95499983E-05