 Entering Gaussian System, Link 0=g09
 Input=td.com
 Output=td.log
 Initial command:
 /home/diegoa/progs/g09/l1.exe /home/diegoa/g09scratch/Gau-20209.inp -scrdir=/home/diegoa/g09scratch/
 Default is to use a total of   4 processors:
                                4 via shared-memory
                                1 via Linda
 Entering Link 1 = /home/diegoa/progs/g09/l1.exe PID=     20212.
  
 Copyright (c) 1988,1990,1992,1993,1995,1998,2003,2009, Gaussian, Inc.
                  All Rights Reserved.
  
 This is part of the Gaussian(R) 09 program.  It is based on
 the Gaussian(R) 03 system (copyright 2003, Gaussian, Inc.),
 the Gaussian(R) 98 system (copyright 1998, Gaussian, Inc.),
 the Gaussian(R) 94 system (copyright 1995, Gaussian, Inc.),
 the Gaussian 92(TM) system (copyright 1992, Gaussian, Inc.),
 the Gaussian 90(TM) system (copyright 1990, Gaussian, Inc.),
 the Gaussian 88(TM) system (copyright 1988, Gaussian, Inc.),
 the Gaussian 86(TM) system (copyright 1986, Carnegie Mellon
 University), and the Gaussian 82(TM) system (copyright 1983,
 Carnegie Mellon University). Gaussian is a federally registered
 trademark of Gaussian, Inc.
  
 This software contains proprietary and confidential information,
 including trade secrets, belonging to Gaussian, Inc.
  
 This software is provided under written license and may be
 used, copied, transmitted, or stored only in accord with that
 written license.
  
 The following legend is applicable only to US Government
 contracts under FAR:
  
                    RESTRICTED RIGHTS LEGEND
  
 Use, reproduction and disclosure by the US Government is
 subject to restrictions as set forth in subparagraphs (a)
 and (c) of the Commercial Computer Software - Restricted
 Rights clause in FAR 52.227-19.
  
 Gaussian, Inc.
 340 Quinnipiac St., Bldg. 40, Wallingford CT 06492
  
  
 ---------------------------------------------------------------
 Warning -- This program may not be used in any manner that
 competes with the business of Gaussian, Inc. or will provide
 assistance to any competitor of Gaussian, Inc.  The licensee
 of this program is prohibited from giving any competitor of
 Gaussian, Inc. access to this program.  By using this program,
 the user acknowledges that Gaussian, Inc. is engaged in the
 business of creating and licensing software in the field of
 computational chemistry and represents and warrants to the
 licensee that it is not a competitor of Gaussian, Inc. and that
 it will not use this program in any manner prohibited above.
 ---------------------------------------------------------------
  

 Cite this work as:
 Gaussian 09, Revision A.01,
 M. J. Frisch, G. W. Trucks, H. B. Schlegel, G. E. Scuseria, 
 M. A. Robb, J. R. Cheeseman, G. Scalmani, V. Barone, B. Mennucci, 
 G. A. Petersson, H. Nakatsuji, M. Caricato, X. Li, H. P. Hratchian, 
 A. F. Izmaylov, J. Bloino, G. Zheng, J. L. Sonnenberg, M. Hada, 
 M. Ehara, K. Toyota, R. Fukuda, J. Hasegawa, M. Ishida, T. Nakajima, 
 Y. Honda, O. Kitao, H. Nakai, T. Vreven, J. A. Montgomery, Jr., 
 J. E. Peralta, F. Ogliaro, M. Bearpark, J. J. Heyd, E. Brothers, 
 K. N. Kudin, V. N. Staroverov, R. Kobayashi, J. Normand, 
 K. Raghavachari, A. Rendell, J. C. Burant, S. S. Iyengar, J. Tomasi, 
 M. Cossi, N. Rega, J. M. Millam, M. Klene, J. E. Knox, J. B. Cross, 
 V. Bakken, C. Adamo, J. Jaramillo, R. Gomperts, R. E. Stratmann, 
 O. Yazyev, A. J. Austin, R. Cammi, C. Pomelli, J. W. Ochterski, 
 R. L. Martin, K. Morokuma, V. G. Zakrzewski, G. A. Voth, 
 P. Salvador, J. J. Dannenberg, S. Dapprich, A. D. Daniels, 
 O. Farkas, J. B. Foresman, J. V. Ortiz, J. Cioslowski, 
 and D. J. Fox, Gaussian, Inc., Wallingford CT, 2009.
 
 ******************************************
 Gaussian 09:  EM64L-G09RevA.01  8-May-2009
                 4-Oct-2019 
 ******************************************
 %chk=td.chk
 %nProcShared=4
 Will use up to    4 processors via shared memory.
 Default route:  MP2=Direct MaxDisk=1000GB DenFit
 -----------------------------
 # B3LYP/TZVP TD(root=1) force
 -----------------------------
 1/10=7,30=1,38=1/1,3;
 2/12=2,17=6,18=5,40=1/2;
 3/5=19,7=101,11=2,16=1,25=1,30=1,71=1,74=-5,82=47/1,2,8,3;
 4//1;
 5/5=2,38=5/2;
 8/6=1,10=1,107=1/1;
 9/8=1,15=2,42=1/14;
 10/5=4/2;
 6/7=2,8=2,9=2,10=2,18=1/1;
 7/12=6,13=5,14=1,29=1/1,2,3,16;
 1/10=7,30=1/3;
 99//99;
 -----
 Title
 -----
 Symbolic Z-matrix:
 Charge =  0 Multiplicity = 1
 6                     3.06671  -0.16726   0.00001 
 6                     1.86312   0.41718  0. 
 6                     0.60475  -0.29638  0. 
 6                    -0.60475   0.29638  0. 
 6                    -1.86312  -0.41718  0. 
 6                    -3.06671   0.16726   0.00001 
 1                     0.65866  -1.38284  0. 
 1                    -0.65866   1.38284  0. 
 1                    -1.8027   -1.50272  -0.00001 
 1                    -3.17283   1.24643   0.00001 
 1                    -3.97965  -0.4136    0.00001 
 1                     3.97965   0.4136    0.00001 
 1                     3.17283  -1.24643   0.00001 
 1                     1.8027    1.50272  -0.00001 
 

 GradGradGradGradGradGradGradGradGradGradGradGradGradGradGradGradGradGrad
 Berny optimization.
 Initialization pass.
 Trust Radius=3.00D-01 FncErr=1.00D-07 GrdErr=1.00D-07
 Number of steps in this run=   2 maximum allowed number of steps=   2.
 GradGradGradGradGradGradGradGradGradGradGradGradGradGradGradGradGradGrad

                          Input orientation:                          
 ---------------------------------------------------------------------
 Center     Atomic      Atomic             Coordinates (Angstroms)
 Number     Number       Type             X           Y           Z
 ---------------------------------------------------------------------
      1          6           0        3.066705   -0.167255    0.000005
      2          6           0        1.863121    0.417180   -0.000002
      3          6           0        0.604749   -0.296384   -0.000004
      4          6           0       -0.604749    0.296384   -0.000004
      5          6           0       -1.863121   -0.417180   -0.000002
      6          6           0       -3.066705    0.167255    0.000005
      7          1           0        0.658658   -1.382843   -0.000004
      8          1           0       -0.658658    1.382843   -0.000004
      9          1           0       -1.802697   -1.502723   -0.000007
     10          1           0       -3.172830    1.246432    0.000009
     11          1           0       -3.979654   -0.413604    0.000006
     12          1           0        3.979654    0.413604    0.000006
     13          1           0        3.172830   -1.246432    0.000009
     14          1           0        1.802697    1.502723   -0.000007
 ---------------------------------------------------------------------
                    Distance matrix (angstroms):
                    1          2          3          4          5
     1  C    0.000000
     2  C    1.337976   0.000000
     3  C    2.465340   1.446608   0.000000
     4  C    3.700613   2.470825   1.346944   0.000000
     5  C    4.936157   3.818512   2.470825   1.446608   0.000000
     6  C    6.142525   4.936157   3.700613   2.465340   1.337976
     7  H    2.697470   2.165829   1.087796   2.101428   2.700347
     8  H    4.034989   2.700347   2.101428   1.087796   2.165829
     9  H    5.049213   4.138146   2.692777   2.161450   1.087223
    10  H    6.397680   5.103769   4.080488   2.738180   2.117296
    11  H    7.050664   5.901544   4.585901   3.448778   2.116536
    12  H    1.082069   2.116536   3.448778   4.585901   5.901544
    13  H    1.084383   2.117296   2.738180   4.080488   5.103769
    14  H    2.094407   1.087223   2.161450   2.692777   4.138146
                    6          7          8          9         10
     6  C    0.000000
     7  H    4.034989   0.000000
     8  H    2.697470   3.063387   0.000000
     9  H    2.094407   2.464273   3.104081   0.000000
    10  H    1.084383   4.646869   2.517870   3.071664   0.000000
    11  H    1.082069   4.738498   3.775743   2.434198   1.845721
    12  H    7.050664   3.775743   4.738498   6.091625   7.200808
    13  H    6.397680   2.517870   4.646869   4.982123   6.817754
    14  H    5.049213   3.104081   2.464273   4.693780   4.982123
                   11         12         13         14
    11  H    0.000000
    12  H    8.002178   0.000000
    13  H    7.200808   1.845721   0.000000
    14  H    6.091625   2.434198   3.071664   0.000000
 Stoichiometry    C6H8
 Framework group  C2[X(C6H8)]
 Deg. of freedom    19
 Full point group                 C2      NOp   2
 Largest Abelian subgroup         C2      NOp   2
 Largest concise Abelian subgroup C2      NOp   2
                         Standard orientation:                         
 ---------------------------------------------------------------------
 Center     Atomic      Atomic             Coordinates (Angstroms)
 Number     Number       Type             X           Y           Z
 ---------------------------------------------------------------------
      1          6           0       -0.218281    3.063496    0.000005
      2          6           0       -0.647318    1.796173   -0.000002
      3          6           0        0.218281    0.637117   -0.000004
      4          6           0       -0.218281   -0.637117   -0.000004
      5          6           0        0.647318   -1.796173   -0.000002
      6          6           0        0.218281   -3.063496    0.000005
      7          1           0        1.289426    0.826720   -0.000004
      8          1           0       -1.289426   -0.826720   -0.000004
      9          1           0        1.716737   -1.600221   -0.000007
     10          1           0       -0.839096   -3.303992    0.000009
     11          1           0        0.908944   -3.896477    0.000006
     12          1           0       -0.908944    3.896477    0.000006
     13          1           0        0.839096    3.303992    0.000009
     14          1           0       -1.716737    1.600221   -0.000007
 ---------------------------------------------------------------------
 Rotational constants (GHZ):     26.8302777      1.3389619      1.2753174
 Standard basis: TZVP (5D, 7F)
 There are    81 symmetry adapted basis functions of A   symmetry.
 There are    81 symmetry adapted basis functions of B   symmetry.
 Integral buffers will be    131072 words long.
 Raffenetti 2 integral format.
 Two-electron integral symmetry is turned on.
   162 basis functions,   274 primitive gaussians,   168 cartesian basis functions
    22 alpha electrons       22 beta electrons
       nuclear repulsion energy       194.2452107965 Hartrees.
 NAtoms=   14 NActive=   14 NUniq=    7 SFac= 3.00D+00 NAtFMM=   80 NAOKFM=F Big=F
 Standard density basis: TZVPFit (5D, 7F)
   300 Density fitting functions
 There are   300 symmetry adapted density basis functions of A   symmetry.
 One-electron integrals computed using PRISM.
 NBasis=   162 RedAO= T  NBF=    81    81
 NBsUse=   162 1.00D-06 NBFU=    81    81
 Harris functional with IExCor=  402 diagonalized for initial guess.
 ExpMin= 9.52D-02 ExpMax= 1.36D+04 ExpMxC= 4.63D+02 IAcc=2 IRadAn=         0 AccDes= 0.00D+00
 HarFok:  IExCor=  402 AccDes= 0.00D+00 IRadAn=         0 IDoV= 1
 ScaDFX=  1.000000  1.000000  1.000000  1.000000
 FoFCou: FMM=F IPFlag=           0 FMFlag=      100000 FMFlg1=           0
         NFxFlg=           0 DoJE=T BraDBF=F KetDBF=T FulRan=T
         Omega=  0.000000  0.000000  1.000000  0.000000  0.000000 ICntrl=     500 IOpCl=  0
         NMat0=    1 NMatS0=    1 NMatT0=    0 NMatD0=    1 NMtDS0=    0 NMtDT0=    0
         I1Cent=           4 NGrid=           0.
 Petite list used in FoFCou.
 Initial guess orbital symmetries:
       Occupied  (B) (A) (A) (B) (A) (B) (A) (B) (A) (B) (A) (B)
                 (A) (B) (B) (A) (A) (B) (A) (A) (B) (A)
       Virtual   (B) (A) (B) (B) (B) (A) (A) (A) (B) (B) (A) (A)
                 (A) (B) (A) (B) (B) (B) (B) (B) (A) (A) (A) (A)
                 (B) (A) (B) (B) (B) (A) (B) (A) (B) (A) (A) (B)
                 (A) (B) (A) (B) (A) (B) (B) (B) (A) (A) (B) (A)
                 (B) (A) (A) (A) (A) (B) (B) (B) (B) (A) (A) (B)
                 (A) (A) (B) (B) (A) (B) (A) (A) (B) (B) (A) (A)
                 (B) (B) (A) (B) (A) (A) (B) (A) (B) (B) (B) (A)
                 (A) (B) (A) (B) (A) (B) (B) (A) (A) (B) (B) (B)
                 (A) (A) (B) (A) (A) (B) (A) (B) (A) (A) (B) (A)
                 (B) (B) (A) (B) (A) (B) (A) (B) (A) (B) (A) (B)
                 (A) (A) (B) (A) (B) (B) (B) (A) (A) (B) (B) (A)
                 (B) (A) (A) (B) (A) (B) (B) (A)
 The electronic state of the initial guess is 1-A.
 Requested convergence on RMS density matrix=1.00D-08 within 128 cycles.
 Requested convergence on MAX density matrix=1.00D-06.
 Requested convergence on             energy=1.00D-06.
 No special actions if energy rises.
 Keep R1 ints in memory in canonical form, NReq=103408248.
 Integral accuracy reduced to 1.0D-05 until final iterations.
 Initial convergence to 1.0D-05 achieved.  Increase integral accuracy.
 SCF Done:  E(RB3LYP) =  -233.484804536     A.U. after   13 cycles
             Convg  =    0.3661D-08             -V/T =  2.0054
 ExpMin= 9.52D-02 ExpMax= 1.36D+04 ExpMxC= 4.63D+02 IAcc=3 IRadAn=         5 AccDes= 0.00D+00
 HarFok:  IExCor=  205 AccDes= 0.00D+00 IRadAn=         5 IDoV=-2
 ScaDFX=  1.000000  1.000000  1.000000  1.000000
 Range of M.O.s used for correlation:     7   162
 NBasis=   162 NAE=    22 NBE=    22 NFC=     6 NFV=     0
 NROrb=    156 NOA=    16 NOB=    16 NVA=   140 NVB=   140

 **** Warning!!: The largest alpha MO coefficient is  0.36464684D+02

 Orbital symmetries:
       Occupied  (A) (B) (A) (B) (B) (A) (A) (B) (A) (B) (B) (A)
                 (A) (B) (B) (A) (A) (B) (A) (A) (B) (A)
       Virtual   (B) (A) (B) (B) (B) (A) (A) (A) (B) (B) (A) (A)
                 (A) (B) (A) (B) (B) (B) (A) (B) (A) (A) (B) (A)
                 (B) (B) (B) (A) (B) (A) (B) (A) (A) (B) (A) (A)
                 (B) (B) (B) (A) (B) (A) (B) (B) (A) (A) (A) (B)
                 (B) (A) (A) (A) (A) (B) (B) (B) (B) (A) (A) (B)
                 (A) (A) (B) (B) (A) (A) (A) (B) (A) (B) (B) (B)
                 (A) (B) (A) (B) (A) (A) (B) (B) (A) (B) (B) (A)
                 (A) (B) (B) (A) (A) (B) (B) (A) (A) (B) (B) (B)
                 (A) (A) (B) (A) (A) (A) (B) (B) (A) (A) (B) (A)
                 (B) (B) (A) (A) (B) (B) (A) (B) (A) (B) (A) (B)
                 (A) (A) (B) (A) (B) (B) (B) (A) (A) (B) (B) (A)
                 (B) (A) (A) (B) (A) (B) (B) (A)
    12 initial guesses have been made.
 Convergence on wavefunction:    0.000001000000000
 Iteration     1 Dimension    12 NMult    12
 CISAX will form    12 AO SS matrices at one time.
 New state      2 was old state      3
 No map to state      3
 Iteration     2 Dimension    18 NMult    18
 Iteration     3 Dimension    24 NMult    24
 Iteration     4 Dimension    30 NMult    30
 Iteration     5 Dimension    36 NMult    36
 Iteration     6 Dimension    42 NMult    42
 Iteration     7 Dimension    48 NMult    48
 Iteration     8 Dimension    54 NMult    54
 Iteration     9 Dimension    60 NMult    60
 Iteration    10 Dimension    66 NMult    66
 ***********************************************************************
 Excited states from <AA,BB:AA,BB> singles matrix:
 ***********************************************************************
 
 Ground to excited state transition electric dipole moments (Au):
       state          X           Y           Z        Dip. S.      Osc.
         1         0.0786     -3.0358      0.0000      9.2224      1.0708
         2         0.0000      0.0000      0.0000      0.0000      0.0000
         3         0.0000      0.0000      0.0000      0.0000      0.0000
 Ground to excited state transition velocity dipole moments (Au):
       state          X           Y           Z        Dip. S.      Osc.
         1        -0.0094      0.5094      0.0000      0.2595      0.9934
         2         0.0000      0.0000      0.0000      0.0000      0.0000
         3         0.0000      0.0000      0.0000      0.0000      0.0000
 Ground to excited state transition magnetic dipole moments (Au):
       state          X           Y           Z
         1         0.0000      0.0000      0.0000
         2         0.0000      0.0000      0.2621
         3        -0.0427     -0.0248      0.0000
 <0|del|b> * <b|rxdel|0> + <0|del|b> * <b|delr+rdel|0>
 Rotatory Strengths (R) in cgs (10**-40 erg-esu-cm/Gauss)
       state          XX          YY          ZZ    R(velocity)
         1         0.0045     -0.0002      0.0023      0.0022
 Total R(velocity) tensor for State=          1
                 1             2             3 
      1   0.452762D-02  0.834115D-04  0.000000D+00
      2  -0.117996D-01 -0.217382D-03  0.000000D+00
      3   0.000000D+00  0.000000D+00  0.228580D-02
 R(velocity) tensor in inp. orien. for State=          1
                 1             2             3 
      1   0.131342D-02  0.122055D-01  0.000000D+00
      2   0.322484D-03  0.299682D-02  0.000000D+00
      3   0.000000D+00  0.000000D+00  0.228580D-02
         2         0.0000      0.0000      0.0000      0.0000
 Total R(velocity) tensor for State=          2
                 1             2             3 
      1  -0.233326D-04  0.239832D-05  0.000000D+00
      2  -0.652263D-05 -0.313036D-04  0.000000D+00
      3   0.000000D+00  0.000000D+00  0.000000D+00
 R(velocity) tensor in inp. orien. for State=          2
                 1             2             3 
      1  -0.306658D-04  0.744868D-05  0.000000D+00
      2  -0.147228D-05 -0.239704D-04  0.000000D+00
      3   0.000000D+00  0.000000D+00  0.000000D+00
         3         0.0000      0.0000      0.0000      0.0000
 Total R(velocity) tensor for State=          3
                 1             2             3 
      1  -0.311745D-05 -0.110023D-04  0.000000D+00
      2   0.388705D-05  0.137185D-04  0.000000D+00
      3   0.000000D+00  0.000000D+00  0.292879D-05
 R(velocity) tensor in inp. orien. for State=          3
                 1             2             3 
      1   0.143386D-04 -0.609145D-05  0.000000D+00
      2   0.879795D-05 -0.373761D-05  0.000000D+00
      3   0.000000D+00  0.000000D+00  0.292879D-05
 1/2[<0|r|b>*<b|rxdel|0> + (<0|rxdel|b>*<b|r|0>)*]
 Rotatory Strengths (R) in cgs (10**-40 erg-esu-cm/Gauss)
       state          XX          YY          ZZ     R(length)     R(au)
         1        -0.0004      0.0071      0.0000      0.0022      0.0000
         2         0.0000      0.0000      0.0000      0.0000      0.0000
         3         0.0000      0.0000      0.0000      0.0000      0.0000
  1/2[<0|del|b>*<b|r|0> + (<0|r|b>*<b|del|0>)*] (Au)
       state          X           Y           Z        Dip. S.   Osc.(frdel)
         1        -0.0007     -1.5463      0.0000      1.5471      1.0314
         2         0.0000      0.0000      0.0000      0.0000      0.0000
         3         0.0000      0.0000      0.0000      0.0000      0.0000
 Ground to excited state transition densities written to RWF  633

 Excitation energies and oscillator strengths:
 
 Excited State   1:      Singlet-B      4.7394 eV  261.60 nm  f=1.0708  <S**2>=0.000
      22 -> 23         0.70988
      22 <- 23        -0.11342
 This state for optimization and/or second-order correction.
 Copying the excited state density for this state as the 1-particle RhoCI density.
 
 Excited State   2:      Singlet-A      5.7658 eV  215.04 nm  f=0.0000  <S**2>=0.000
      21 -> 23         0.51793
      22 -> 24         0.47845
 
 Excited State   3:      Singlet-B      6.4197 eV  193.13 nm  f=0.0000  <S**2>=0.000
      22 -> 25         0.70420
 SavETr:  write IOETrn=   770 NScale= 10 NData=  16 NLR=1 LETran=      64.
          IDoAtm=11111111111111
          Differentiating once with respect to electric field.
                with respect to dipole field.
          Differentiating once with respect to nuclear coordinates.
          Keep R1 ints in memory in canonical form, NReq=101598264.
          There are     1 degrees of freedom in the 1st order CPHF.  IDoFFX=0.
 LinEq1:  Iter=  0 NonCon=     1 RMS=9.22D-03 Max=3.55D-01
 AX will form     1 AO Fock derivatives at one time.
 LinEq1:  Iter=  1 NonCon=     1 RMS=2.21D-03 Max=3.51D-02
 LinEq1:  Iter=  2 NonCon=     1 RMS=1.11D-03 Max=2.97D-02
 LinEq1:  Iter=  3 NonCon=     1 RMS=8.09D-04 Max=1.98D-02
 LinEq1:  Iter=  4 NonCon=     1 RMS=4.28D-04 Max=1.55D-02
 LinEq1:  Iter=  5 NonCon=     1 RMS=2.07D-04 Max=5.73D-03
 LinEq1:  Iter=  6 NonCon=     1 RMS=5.16D-05 Max=6.42D-04
 LinEq1:  Iter=  7 NonCon=     1 RMS=5.60D-06 Max=9.60D-05
 LinEq1:  Iter=  8 NonCon=     1 RMS=1.23D-06 Max=2.69D-05
 LinEq1:  Iter=  9 NonCon=     1 RMS=1.18D-07 Max=1.72D-06
 LinEq1:  Iter= 10 NonCon=     1 RMS=1.56D-08 Max=2.25D-07
 LinEq1:  Iter= 11 NonCon=     1 RMS=1.94D-09 Max=1.88D-08
 LinEq1:  Iter= 12 NonCon=     1 RMS=2.69D-10 Max=2.86D-09
 LinEq1:  Iter= 13 NonCon=     0 RMS=4.22D-11 Max=3.90D-10
 Linear equations converged to 1.000D-10 1.000D-09 after    13 iterations.
 End of Minotr Frequency-dependent properties file   721 does not exist.
 End of Minotr Frequency-dependent properties file   722 does not exist.

 **********************************************************************

            Population analysis using the SCF density.

 **********************************************************************

 Orbital symmetries:
       Occupied  (A) (B) (A) (B) (B) (A) (A) (B) (A) (B) (B) (A)
                 (A) (B) (B) (A) (A) (B) (A) (A) (B) (A)
       Virtual   (B) (A) (B) (B) (B) (A) (A) (A) (B) (B) (A) (A)
                 (A) (B) (A) (B) (B) (B) (A) (B) (A) (A) (B) (A)
                 (B) (B) (B) (A) (B) (A) (B) (A) (A) (B) (A) (A)
                 (B) (B) (B) (A) (B) (A) (B) (B) (A) (A) (A) (B)
                 (B) (A) (A) (A) (A) (B) (B) (B) (B) (A) (A) (B)
                 (A) (A) (B) (B) (A) (A) (A) (B) (A) (B) (B) (B)
                 (A) (B) (A) (B) (A) (A) (B) (B) (A) (B) (B) (A)
                 (A) (B) (B) (A) (A) (B) (B) (A) (A) (B) (B) (B)
                 (A) (A) (B) (A) (A) (A) (B) (B) (A) (A) (B) (A)
                 (B) (B) (A) (A) (B) (B) (A) (B) (A) (B) (A) (B)
                 (A) (A) (B) (A) (B) (B) (B) (A) (A) (B) (B) (A)
                 (B) (A) (A) (B) (A) (B) (B) (A)
 The electronic state is 1-A.
 Alpha  occ. eigenvalues --  -10.18407 -10.18402 -10.18359 -10.18284 -10.17348
 Alpha  occ. eigenvalues --  -10.17348  -0.82876  -0.78753  -0.72869  -0.62847
 Alpha  occ. eigenvalues --   -0.56603  -0.56094  -0.49426  -0.46917  -0.43842
 Alpha  occ. eigenvalues --   -0.41330  -0.39039  -0.36897  -0.35305  -0.35100
 Alpha  occ. eigenvalues --   -0.29923  -0.22259
 Alpha virt. eigenvalues --   -0.05914   0.02561   0.04871   0.05675   0.06880
 Alpha virt. eigenvalues --    0.07137   0.08838   0.10071   0.12134   0.13095
 Alpha virt. eigenvalues --    0.14435   0.16500   0.17494   0.19459   0.19743
 Alpha virt. eigenvalues --    0.21424   0.22636   0.22769   0.25719   0.27561
 Alpha virt. eigenvalues --    0.27932   0.28531   0.29405   0.30408   0.32436
 Alpha virt. eigenvalues --    0.35089   0.35652   0.35986   0.36309   0.39746
 Alpha virt. eigenvalues --    0.42752   0.43797   0.44385   0.45339   0.46524
 Alpha virt. eigenvalues --    0.47442   0.48753   0.50935   0.55753   0.56439
 Alpha virt. eigenvalues --    0.56928   0.59001   0.61491   0.64392   0.65190
 Alpha virt. eigenvalues --    0.67853   0.71170   0.73085   1.18055   1.19074
 Alpha virt. eigenvalues --    1.19230   1.22344   1.24108   1.24330   1.25106
 Alpha virt. eigenvalues --    1.26115   1.26918   1.27552   1.28538   1.28740
 Alpha virt. eigenvalues --    1.29325   1.30037   1.36734   1.39112   1.41203
 Alpha virt. eigenvalues --    1.42161   1.42492   1.42941   1.45344   1.45975
 Alpha virt. eigenvalues --    1.46142   1.47065   1.47895   1.50111   1.53873
 Alpha virt. eigenvalues --    1.60546   1.61050   1.68829   1.71464   1.74477
 Alpha virt. eigenvalues --    1.74928   1.77545   1.80262   1.80597   1.83402
 Alpha virt. eigenvalues --    1.83886   1.83914   1.84560   1.84879   1.88548
 Alpha virt. eigenvalues --    1.91913   1.93013   1.94388   2.00114   2.06445
 Alpha virt. eigenvalues --    2.06758   2.07095   2.11674   2.14746   2.16274
 Alpha virt. eigenvalues --    2.22912   2.27371   2.28144   2.28941   2.34069
 Alpha virt. eigenvalues --    2.42017   2.43899   2.47024   2.50034   2.50905
 Alpha virt. eigenvalues --    2.57741   2.58035   2.58199   2.61735   2.63260
 Alpha virt. eigenvalues --    2.63630   2.68454   2.72430   2.75562   2.76568
 Alpha virt. eigenvalues --    2.78811   2.98538   3.01003   3.01675   3.04206
 Alpha virt. eigenvalues --    3.10444   3.13899   3.17165   3.20075   3.26062
 Alpha virt. eigenvalues --    3.38724   3.42165   3.58257   3.61386  21.42360
 Alpha virt. eigenvalues --   21.59995  21.74669  22.08212  22.12608  22.13833
          Condensed to atoms (all electrons):
              1          2          3          4          5          6
     1  C    4.946860   0.583662  -0.056383   0.006008  -0.001933   0.000138
     2  C    0.583662   4.900648   0.362975  -0.023422   0.010505  -0.001933
     3  C   -0.056383   0.362975   4.943991   0.566379  -0.023422   0.006008
     4  C    0.006008  -0.023422   0.566379   4.943991   0.362975  -0.056383
     5  C   -0.001933   0.010505  -0.023422   0.362975   4.900648   0.583662
     6  C    0.000138  -0.001933   0.006008  -0.056383   0.583662   4.946860
     7  H    0.000709  -0.059546   0.412832  -0.047612  -0.007760   0.002567
     8  H    0.002567  -0.007760  -0.047612   0.412832  -0.059546   0.000709
     9  H    0.000079   0.001607  -0.003679  -0.054493   0.403364  -0.034504
    10  H    0.000006   0.000001   0.002879  -0.008446  -0.059490   0.420658
    11  H   -0.000002   0.000058  -0.001289   0.011255  -0.028501   0.400465
    12  H    0.400465  -0.028501   0.011255  -0.001289   0.000058  -0.000002
    13  H    0.420658  -0.059490  -0.008446   0.002879   0.000001   0.000006
    14  H   -0.034504   0.403364  -0.054493  -0.003679   0.001607   0.000079
              7          8          9         10         11         12
     1  C    0.000709   0.002567   0.000079   0.000006  -0.000002   0.400465
     2  C   -0.059546  -0.007760   0.001607   0.000001   0.000058  -0.028501
     3  C    0.412832  -0.047612  -0.003679   0.002879  -0.001289   0.011255
     4  C   -0.047612   0.412832  -0.054493  -0.008446   0.011255  -0.001289
     5  C   -0.007760  -0.059546   0.403364  -0.059490  -0.028501   0.000058
     6  C    0.002567   0.000709  -0.034504   0.420658   0.400465  -0.000002
     7  H    0.565584   0.006567   0.002976   0.000041  -0.000047  -0.000028
     8  H    0.006567   0.565584   0.005275   0.003442  -0.000028  -0.000047
     9  H    0.002976   0.005275   0.564757   0.006626  -0.008581  -0.000001
    10  H    0.000041   0.003442   0.006626   0.556205  -0.037153   0.000000
    11  H   -0.000047  -0.000028  -0.008581  -0.037153   0.549077   0.000000
    12  H   -0.000028  -0.000047  -0.000001   0.000000   0.000000   0.549077
    13  H    0.003442   0.000041   0.000020   0.000000   0.000000  -0.037153
    14  H    0.005275   0.002976   0.000025   0.000020  -0.000001  -0.008581
             13         14
     1  C    0.420658  -0.034504
     2  C   -0.059490   0.403364
     3  C   -0.008446  -0.054493
     4  C    0.002879  -0.003679
     5  C    0.000001   0.001607
     6  C    0.000006   0.000079
     7  H    0.003442   0.005275
     8  H    0.000041   0.002976
     9  H    0.000020   0.000025
    10  H    0.000000   0.000020
    11  H    0.000000  -0.000001
    12  H   -0.037153  -0.008581
    13  H    0.556205   0.006626
    14  H    0.006626   0.564757
 Mulliken atomic charges:
              1
     1  C   -0.268329
     2  C   -0.082168
     3  C   -0.110995
     4  C   -0.110995
     5  C   -0.082168
     6  C   -0.268329
     7  H    0.115002
     8  H    0.115002
     9  H    0.116532
    10  H    0.115212
    11  H    0.114747
    12  H    0.114747
    13  H    0.115212
    14  H    0.116532
 Sum of Mulliken atomic charges =   0.00000
 Mulliken charges with hydrogens summed into heavy atoms:
              1
     1  C   -0.038370
     2  C    0.034364
     3  C    0.004006
     4  C    0.004006
     5  C    0.034364
     6  C   -0.038370
 Sum of Mulliken charges with hydrogens summed into heavy atoms =   0.00000
 Electronic spatial extent (au):  <R**2>=            916.0159
 Charge=              0.0000 electrons
 Dipole moment (field-independent basis, Debye):
    X=              0.0000    Y=              0.0000    Z=              0.0000  Tot=              0.0000
 Quadrupole moment (field-independent basis, Debye-Ang):
   XX=            -33.7947   YY=            -34.9485   ZZ=            -42.5305
   XY=              0.1245   XZ=              0.0000   YZ=              0.0000
 Traceless Quadrupole moment (field-independent basis, Debye-Ang):
   XX=              3.2966   YY=              2.1427   ZZ=             -5.4393
   XY=              0.1245   XZ=              0.0000   YZ=              0.0000
 Octapole moment (field-independent basis, Debye-Ang**2):
  XXX=              0.0000  YYY=              0.0000  ZZZ=              0.0000  XYY=              0.0000
  XXY=              0.0000  XXZ=              0.0000  XZZ=              0.0000  YZZ=              0.0000
  YYZ=              0.0001  XYZ=              0.0000
 Hexadecapole moment (field-independent basis, Debye-Ang**3):
 XXXX=           -116.8444 YYYY=          -1054.9590 ZZZZ=            -52.0635 XXXY=             60.7875
 XXXZ=              0.0000 YYYX=             50.3679 YYYZ=              0.0000 ZZZX=              0.0000
 ZZZY=              0.0000 XXYY=           -190.6476 XXZZ=            -31.8960 YYZZ=           -225.5093
 XXYZ=              0.0000 YYXZ=              0.0000 ZZXY=             25.0016
 N-N= 1.942452107965D+02 E-N=-9.290492305647D+02  KE= 2.322344463182D+02
 Symmetry A    KE= 1.189816855480D+02
 Symmetry B    KE= 1.132527607702D+02
 Calling FoFJK, ICntrl=      5127 FMM=F ISym2X=1 I1Cent= 0 IOpClX= 0 NMat=1 NMatS=1 NMatT=0.
 ***** Axes restored to original set *****
 -------------------------------------------------------------------
 Center     Atomic                   Forces (Hartrees/Bohr)
 Number     Number              X              Y              Z
 -------------------------------------------------------------------
      1        6           0.042662534   -0.019363308    0.000000163
      2        6          -0.060168423    0.006413159   -0.000000355
      3        6           0.075073043   -0.012292665   -0.000000019
      4        6          -0.075073043    0.012292665   -0.000000019
      5        6           0.060168423   -0.006413159   -0.000000355
      6        6          -0.042662534    0.019363308    0.000000163
      7        1           0.000239848   -0.000154304    0.000000066
      8        1          -0.000239848    0.000154304    0.000000066
      9        1           0.000738942   -0.000360954    0.000000099
     10        1          -0.000602952    0.000306217    0.000000055
     11        1          -0.000516390    0.000304949   -0.000000010
     12        1           0.000516390   -0.000304949   -0.000000010
     13        1           0.000602952   -0.000306217    0.000000055
     14        1          -0.000738942    0.000360954    0.000000099
 -------------------------------------------------------------------
 Cartesian Forces:  Max     0.075073043 RMS     0.023548373

 GradGradGradGradGradGradGradGradGradGradGradGradGradGradGradGradGradGrad
 Berny optimization.
 Search for a local minimum.
 Step number   1 out of a maximum of    2
 All quantities printed in internal units (Hartrees-Bohrs-Radians)
 Second derivative matrix not updated -- first step.
     Eigenvalues ---    0.00225   0.00406   0.00521   0.00865   0.01750
     Eigenvalues ---    0.02357   0.02816   0.02886   0.03554   0.07224
     Eigenvalues ---    0.07313   0.07327   0.08289   0.08850   0.09635
     Eigenvalues ---    0.13982   0.14959   0.15863   0.18997   0.20262
     Eigenvalues ---    0.24486   0.24725   0.30715   0.34598   0.39262
     Eigenvalues ---    0.50996   0.60990   0.66426   0.68033   0.91375
     Eigenvalues ---    0.97140   1.19330   1.34786   1.41226   1.60331
     Eigenvalues ---    1.73063
 Quadratic step=3.125D-01 exceeds max=3.000D-01 adjusted using Lamda=-1.488D-03.
 Angle between NR and scaled steps=   1.56 degrees.
 Angle between quadratic step and forces=  67.27 degrees.
 ClnCor:  largest displacement from symmetrization is 1.18D-09 for atom     8.
 Linear search not attempted -- first point.
 ClnCor:  largest displacement from symmetrization is 4.45D-15 for atom    11.
 TrRot=  0.000000  0.000000  0.000000 -0.000593  0.000000 -0.000593
 Variable       Old X    -DE/DX   Delta X   Delta X   Delta X     New X
                                 (Linear)    (Quad)   (Total)
    X1        5.79523   0.04266   0.00000   0.09445   0.09404   5.88927
    Y1       -0.31607  -0.01936   0.00000  -0.02155  -0.02854  -0.34460
    Z1        0.00001   0.00000   0.00000   0.00000   0.00000   0.00001
    X2        3.52079  -0.06017   0.00000   0.00297   0.00387   3.52466
    Y2        0.78836   0.00641   0.00000  -0.02071  -0.02489   0.76347
    Z2        0.00000   0.00000   0.00000   0.00000   0.00000   0.00000
    X3        1.14281   0.07507   0.00000   0.05953   0.05886   1.20167
    Y3       -0.56008  -0.01229   0.00000  -0.00686  -0.00828  -0.56837
    Z3       -0.00001   0.00000   0.00000   0.00000   0.00000  -0.00001
    X4       -1.14281  -0.07507   0.00000  -0.05953  -0.05886  -1.20167
    Y4        0.56008   0.01229   0.00000   0.00686   0.00828   0.56837
    Z4       -0.00001   0.00000   0.00000   0.00000   0.00000  -0.00001
    X5       -3.52079   0.06017   0.00000  -0.00297  -0.00387  -3.52466
    Y5       -0.78836  -0.00641   0.00000   0.02071   0.02489  -0.76347
    Z5        0.00000   0.00000   0.00000   0.00000   0.00000   0.00000
    X6       -5.79523  -0.04266   0.00000  -0.09445  -0.09404  -5.88927
    Y6        0.31607   0.01936   0.00000   0.02155   0.02854   0.34460
    Z6        0.00001   0.00000   0.00000   0.00000   0.00000   0.00001
    X7        1.24468   0.00024   0.00000   0.08316   0.08005   1.32473
    Y7       -2.61319  -0.00015   0.00000  -0.00611  -0.00768  -2.62088
    Z7       -0.00001   0.00000   0.00000   0.00000   0.00000  -0.00001
    X8       -1.24468  -0.00024   0.00000  -0.08316  -0.08005  -1.32473
    Y8        2.61319   0.00015   0.00000   0.00611   0.00768   2.62088
    Z8       -0.00001   0.00000   0.00000   0.00000   0.00000  -0.00001
    X9       -3.40660   0.00074   0.00000   0.02789   0.02455  -3.38205
    Y9       -2.83973  -0.00036   0.00000   0.02119   0.02519  -2.81454
    Z9       -0.00001   0.00000   0.00000   0.00000   0.00000  -0.00001
   X10       -5.99578  -0.00060   0.00000  -0.12887  -0.12605  -6.12183
   Y10        2.35542   0.00031   0.00000   0.01904   0.02630   2.38172
   Z10        0.00002   0.00000   0.00000   0.00000   0.00000   0.00001
   X11       -7.52046  -0.00052   0.00000  -0.08035  -0.08127  -7.60173
   Y11       -0.78160   0.00030   0.00000  -0.00152   0.00749  -0.77410
   Z11        0.00001   0.00000   0.00000   0.00000   0.00000   0.00001
   X12        7.52046   0.00052   0.00000   0.08035   0.08127   7.60173
   Y12        0.78160  -0.00030   0.00000   0.00152  -0.00749   0.77410
   Z12        0.00001   0.00000   0.00000   0.00000   0.00000   0.00001
   X13        5.99578   0.00060   0.00000   0.12887   0.12605   6.12183
   Y13       -2.35542  -0.00031   0.00000  -0.01904  -0.02630  -2.38172
   Z13        0.00002   0.00000   0.00000   0.00000   0.00000   0.00001
   X14        3.40660  -0.00074   0.00000  -0.02789  -0.02455   3.38205
   Y14        2.83973   0.00036   0.00000  -0.02119  -0.02519   2.81454
   Z14       -0.00001   0.00000   0.00000   0.00000   0.00000  -0.00001
         Item               Value     Threshold  Converged?
 Maximum Force            0.075073     0.000450     NO 
 RMS     Force            0.023548     0.000300     NO 
 Maximum Displacement     0.126051     0.001800     NO 
 RMS     Displacement     0.046174     0.001200     NO 
 Predicted change in Energy=-8.914290D-03
 GradGradGradGradGradGradGradGradGradGradGradGradGradGradGradGradGradGrad

 1\1\GINC-CLODOMIRA\Force\RTD-B3LYP-FC\TZVP\C6H8\DIEGOA\04-Oct-2019\0\\
 # B3LYP/TZVP TD(root=1) force\\Title\\0,1\C,3.066705,-0.167255,0.00000
 5\C,1.863121,0.41718,-0.000002\C,0.604749,-0.296384,-0.000004\C,-0.604
 749,0.296384,-0.000004\C,-1.863121,-0.41718,-0.000002\C,-3.066705,0.16
 7255,0.000005\H,0.658658,-1.382843,-0.000004\H,-0.658658,1.382843,-0.0
 00004\H,-1.802697,-1.502723,-0.000007\H,-3.17283,1.246432,0.000009\H,-
 3.979654,-0.413604,0.000006\H,3.979654,0.413604,0.000006\H,3.17283,-1.
 246432,0.000009\H,1.802697,1.502723,-0.000007\\Version=EM64L-G09RevA.0
 1\State=1-A\HF=-233.4848045\RMSD=3.661e-09\RMSF=2.355e-02\Dipole=0.,0.
 ,-0.0000007\PG=C02 [X(C6H8)]\\@


 "THE TIME HAS COME", THE WALRUS SAID,
 "TO TALK OF MANY THINGS,
 OF SHOES AND SHIPS AND SEALING WAX,
 OF CABBAGES AND KINGS,
 AND WHY THE SEA IS BOILING HOT,
 AND WHETHER PIGS HAVE WINGS."
 Job cpu time:  0 days  0 hours  7 minutes 25.2 seconds.
 File lengths (MBytes):  RWF=     39 Int=      0 D2E=      0 Chk=      6 Scr=      1
 Normal termination of Gaussian 09 at Fri Oct  4 00:25:10 2019.
