Title                                                                   
Freq      RPBEPBE                                                     6-31G(d,p)          
Number of atoms                            I                6
Info1-9                                    I   N=           9
          14          14        1002           0           0         100
           6          18         902
Charge                                     I                0
Multiplicity                               I                1
Number of electrons                        I               24
Number of alpha electrons                  I               12
Number of beta electrons                   I               12
Number of basis functions                  I               60
Number of independent functions            I               60
Number of point charges in /Mol/           I                0
Number of translation vectors              I                0
Atomic numbers                             I   N=           6
           6           7           8           1           1           1
Nuclear charges                            R   N=           6
  6.00000000E+00  7.00000000E+00  8.00000000E+00  1.00000000E+00  1.00000000E+00
  1.00000000E+00
Current cartesian coordinates              R   N=          18
 -2.86582500E-01  7.35599919E-01  3.12016883E-06  2.05496620E+00 -3.07003848E-01
 -2.68778719E-05 -2.29312839E+00 -4.59315232E-01 -6.61151850E-05  2.25553512E+00
 -2.21973769E+00  2.51951464E-04  3.63325132E+00  7.86067141E-01  4.27365335E-04
 -2.09027748E-01  2.84361983E+00  1.90287713E-05
Force Field                                I                0
Int Atom Types                             I   N=           6
           0           0           0           0           0           0
MM charges                                 R   N=           6
  0.00000000E+00  0.00000000E+00  0.00000000E+00  0.00000000E+00  0.00000000E+00
  0.00000000E+00
Integer atomic weights                     I   N=           6
          12          14          16           1           1           1
Real atomic weights                        R   N=           6
  1.20000000E+01  1.40030740E+01  1.59949146E+01  1.00782504E+00  1.00782504E+00
  1.00782504E+00
Atom fragment info                         I   N=           6
           0           0           0           0           0           0
Atom residue num                           I   N=           6
           0           0           0           0           0           0
Nuclear spins                              I   N=           6
           0           2           0           1           1           1
Nuclear ZEff                               R   N=           6
 -3.60000000E+00 -4.55000000E+00 -5.60000000E+00 -1.00000000E+00 -1.00000000E+00
 -1.00000000E+00
Nuclear QMom                               R   N=           6
  0.00000000E+00  2.04400000E+00  0.00000000E+00  0.00000000E+00  0.00000000E+00
  0.00000000E+00
Nuclear GFac                               R   N=           6
  0.00000000E+00  4.03761000E-01  0.00000000E+00  2.79284600E+00  2.79284600E+00
  2.79284600E+00
MicOpt                                     I   N=           6
          -1          -1          -1          -1          -1          -1
Number of contracted shells                I               21
Number of primitive shells                 I               48
Pure/Cartesian d shells                    I                1
Pure/Cartesian f shells                    I                0
Highest angular momentum                   I                2
Largest degree of contraction              I                6
Shell types                                I   N=          21
           0          -1          -1           2           0          -1
          -1           2           0          -1          -1           2
           0           0           1           0           0           1
           0           0           1
Number of primitives per shell             I   N=          21
           6           3           1           1           6           3
           1           1           6           3           1           1
           3           1           1           3           1           1
           3           1           1
Shell to atom map                          I   N=          21
           1           1           1           1           2           2
           2           2           3           3           3           3
           4           4           4           5           5           5
           6           6           6
Primitive exponents                        R   N=          48
  3.04752488E+03  4.57369518E+02  1.03948685E+02  2.92101553E+01  9.28666296E+00
  3.16392696E+00  7.86827235E+00  1.88128854E+00  5.44249258E-01  1.68714478E-01
  8.00000000E-01  4.17351146E+03  6.27457911E+02  1.42902093E+02  4.02343293E+01
  1.28202129E+01  4.39043701E+00  1.16263619E+01  2.71627981E+00  7.72218397E-01
  2.12031498E-01  8.00000000E-01  5.48467166E+03  8.25234946E+02  1.88046958E+02
  5.29645000E+01  1.68975704E+01  5.79963534E+00  1.55396162E+01  3.59993359E+00
  1.01376175E+00  2.70005823E-01  8.00000000E-01  1.87311370E+01  2.82539436E+00
  6.40121692E-01  1.61277759E-01  1.10000000E+00  1.87311370E+01  2.82539436E+00
  6.40121692E-01  1.61277759E-01  1.10000000E+00  1.87311370E+01  2.82539436E+00
  6.40121692E-01  1.61277759E-01  1.10000000E+00
Contraction coefficients                   R   N=          48
  1.83473713E-03  1.40373228E-02  6.88426223E-02  2.32184443E-01  4.67941348E-01
  3.62311985E-01 -1.19332420E-01 -1.60854152E-01  1.14345644E+00  1.00000000E+00
  1.00000000E+00  1.83477216E-03  1.39946270E-02  6.85865518E-02  2.32240873E-01
  4.69069948E-01  3.60455199E-01 -1.14961182E-01 -1.69117479E-01  1.14585195E+00
  1.00000000E+00  1.00000000E+00  1.83107443E-03  1.39501722E-02  6.84450781E-02
  2.32714336E-01  4.70192898E-01  3.58520853E-01 -1.10777550E-01 -1.48026263E-01
  1.13076702E+00  1.00000000E+00  1.00000000E+00  3.34946043E-02  2.34726953E-01
  8.13757326E-01  1.00000000E+00  1.00000000E+00  3.34946043E-02  2.34726953E-01
  8.13757326E-01  1.00000000E+00  1.00000000E+00  3.34946043E-02  2.34726953E-01
  8.13757326E-01  1.00000000E+00  1.00000000E+00
P(S=P) Contraction coefficients            R   N=          48
  0.00000000E+00  0.00000000E+00  0.00000000E+00  0.00000000E+00  0.00000000E+00
  0.00000000E+00  6.89990666E-02  3.16423961E-01  7.44308291E-01  1.00000000E+00
  0.00000000E+00  0.00000000E+00  0.00000000E+00  0.00000000E+00  0.00000000E+00
  0.00000000E+00  0.00000000E+00  6.75797439E-02  3.23907296E-01  7.40895140E-01
  1.00000000E+00  0.00000000E+00  0.00000000E+00  0.00000000E+00  0.00000000E+00
  0.00000000E+00  0.00000000E+00  0.00000000E+00  7.08742682E-02  3.39752839E-01
  7.27158577E-01  1.00000000E+00  0.00000000E+00  0.00000000E+00  0.00000000E+00
  0.00000000E+00  0.00000000E+00  0.00000000E+00  0.00000000E+00  0.00000000E+00
  0.00000000E+00  0.00000000E+00  0.00000000E+00  0.00000000E+00  0.00000000E+00
  0.00000000E+00  0.00000000E+00  0.00000000E+00
Coordinates of each shell                  R   N=          63
 -2.86582500E-01  7.35599919E-01  3.12016883E-06 -2.86582500E-01  7.35599919E-01
  3.12016883E-06 -2.86582500E-01  7.35599919E-01  3.12016883E-06 -2.86582500E-01
  7.35599919E-01  3.12016883E-06  2.05496620E+00 -3.07003848E-01 -2.68778719E-05
  2.05496620E+00 -3.07003848E-01 -2.68778719E-05  2.05496620E+00 -3.07003848E-01
 -2.68778719E-05  2.05496620E+00 -3.07003848E-01 -2.68778719E-05 -2.29312839E+00
 -4.59315232E-01 -6.61151850E-05 -2.29312839E+00 -4.59315232E-01 -6.61151850E-05
 -2.29312839E+00 -4.59315232E-01 -6.61151850E-05 -2.29312839E+00 -4.59315232E-01
 -6.61151850E-05  2.25553512E+00 -2.21973769E+00  2.51951464E-04  2.25553512E+00
 -2.21973769E+00  2.51951464E-04  2.25553512E+00 -2.21973769E+00  2.51951464E-04
  3.63325132E+00  7.86067141E-01  4.27365335E-04  3.63325132E+00  7.86067141E-01
  4.27365335E-04  3.63325132E+00  7.86067141E-01  4.27365335E-04 -2.09027748E-01
  2.84361983E+00  1.90287713E-05 -2.09027748E-01  2.84361983E+00  1.90287713E-05
 -2.09027748E-01  2.84361983E+00  1.90287713E-05
Density Number of contracted shells        I               72
Density Number of primitive shells         I               72
Density Pure/Cartesian d shells            I                0
Density Pure/Cartesian f shells            I                0
Density Highest angular momentum           I                3
Density Largest degree of contraction      I                1
Density Shell types                        I   N=          72
           0           0           0           0          -1          -2
          -1          -2          -1          -2          -1          -2
          -3          -1          -2          -3           0           0
           0           0          -1          -2          -1          -2
          -1          -2          -1          -2          -3          -1
          -2          -3           0           0           0           0
          -1          -2          -1          -2          -1          -2
          -1          -2          -3          -1          -2          -3
           0           0          -1          -2          -1          -2
          -1          -2           0           0          -1          -2
          -1          -2          -1          -2           0           0
          -1          -2          -1          -2          -1          -2
Density Number of primitives per shell     I   N=          72
           1           1           1           1           1           1
           1           1           1           1           1           1
           1           1           1           1           1           1
           1           1           1           1           1           1
           1           1           1           1           1           1
           1           1           1           1           1           1
           1           1           1           1           1           1
           1           1           1           1           1           1
           1           1           1           1           1           1
           1           1           1           1           1           1
           1           1           1           1           1           1
           1           1           1           1           1           1
Density Shell to atom map                  I   N=          72
           1           1           1           1           1           1
           1           1           1           1           1           1
           1           1           1           1           2           2
           2           2           2           2           2           2
           2           2           2           2           2           2
           2           2           3           3           3           3
           3           3           3           3           3           3
           3           3           3           3           3           3
           4           4           4           4           4           4
           4           4           5           5           5           5
           5           5           5           5           6           6
           6           6           6           6           6           6
Density Primitive exponents                R   N=          72
  6.09504976E+03  9.14739036E+02  2.07897370E+02  5.84203106E+01  1.70961976E+01
  1.70961976E+01  6.32785392E+00  6.32785392E+00  3.76257708E+00  3.76257708E+00
  1.31969604E+00  1.31969604E+00  1.31969604E+00  3.37428956E-01  3.37428956E-01
  3.37428956E-01  8.34702292E+03  1.25491582E+03  2.85804186E+02  8.04686586E+01
  2.44174064E+01  2.44174064E+01  8.78087402E+00  8.78087402E+00  5.43255961E+00
  5.43255961E+00  1.57197292E+00  1.57197292E+00  1.57197292E+00  4.24062995E-01
  4.24062995E-01  4.24062995E-01  1.09693433E+04  1.65046989E+03  3.76093916E+02
  1.05929000E+02  3.24087494E+01  3.24087494E+01  1.15992707E+01  1.15992707E+01
  7.19986717E+00  7.19986717E+00  1.80112121E+00  1.80112121E+00  1.80112121E+00
  5.40011645E-01  5.40011645E-01  5.40011645E-01  3.74622739E+01  5.65078873E+00
  2.20000000E+00  2.20000000E+00  1.28024338E+00  1.28024338E+00  3.22555518E-01
  3.22555518E-01  3.74622739E+01  5.65078873E+00  2.20000000E+00  2.20000000E+00
  1.28024338E+00  1.28024338E+00  3.22555518E-01  3.22555518E-01  3.74622739E+01
  5.65078873E+00  2.20000000E+00  2.20000000E+00  1.28024338E+00  1.28024338E+00
  3.22555518E-01  3.22555518E-01
Density Contraction coefficients           R   N=          72
  1.00000000E+00  1.00000000E+00  1.00000000E+00  1.00000000E+00  1.00000000E+00
  1.00000000E+00  1.00000000E+00  1.00000000E+00  1.00000000E+00  1.00000000E+00
  1.00000000E+00  1.00000000E+00  1.00000000E+00  1.00000000E+00  1.00000000E+00
  1.00000000E+00  1.00000000E+00  1.00000000E+00  1.00000000E+00  1.00000000E+00
  1.00000000E+00  1.00000000E+00  1.00000000E+00  1.00000000E+00  1.00000000E+00
  1.00000000E+00  1.00000000E+00  1.00000000E+00  1.00000000E+00  1.00000000E+00
  1.00000000E+00  1.00000000E+00  1.00000000E+00  1.00000000E+00  1.00000000E+00
  1.00000000E+00  1.00000000E+00  1.00000000E+00  1.00000000E+00  1.00000000E+00
  1.00000000E+00  1.00000000E+00  1.00000000E+00  1.00000000E+00  1.00000000E+00
  1.00000000E+00  1.00000000E+00  1.00000000E+00  1.00000000E+00  1.00000000E+00
  1.00000000E+00  1.00000000E+00  1.00000000E+00  1.00000000E+00  1.00000000E+00
  1.00000000E+00  1.00000000E+00  1.00000000E+00  1.00000000E+00  1.00000000E+00
  1.00000000E+00  1.00000000E+00  1.00000000E+00  1.00000000E+00  1.00000000E+00
  1.00000000E+00  1.00000000E+00  1.00000000E+00  1.00000000E+00  1.00000000E+00
  1.00000000E+00  1.00000000E+00
Density P(S=P) Contraction coefficients    R   N=          72
  0.00000000E+00  0.00000000E+00  0.00000000E+00  0.00000000E+00  1.00000000E+00
  0.00000000E+00  1.00000000E+00  0.00000000E+00  1.00000000E+00  0.00000000E+00
  1.00000000E+00  0.00000000E+00  0.00000000E+00  1.00000000E+00  0.00000000E+00
  0.00000000E+00  0.00000000E+00  0.00000000E+00  0.00000000E+00  0.00000000E+00
  1.00000000E+00  0.00000000E+00  1.00000000E+00  0.00000000E+00  1.00000000E+00
  0.00000000E+00  1.00000000E+00  0.00000000E+00  0.00000000E+00  1.00000000E+00
  0.00000000E+00  0.00000000E+00  0.00000000E+00  0.00000000E+00  0.00000000E+00
  0.00000000E+00  1.00000000E+00  0.00000000E+00  1.00000000E+00  0.00000000E+00
  1.00000000E+00  0.00000000E+00  1.00000000E+00  0.00000000E+00  0.00000000E+00
  1.00000000E+00  0.00000000E+00  0.00000000E+00  0.00000000E+00  0.00000000E+00
  1.00000000E+00  0.00000000E+00  1.00000000E+00  0.00000000E+00  1.00000000E+00
  0.00000000E+00  0.00000000E+00  0.00000000E+00  1.00000000E+00  0.00000000E+00
  1.00000000E+00  0.00000000E+00  1.00000000E+00  0.00000000E+00  0.00000000E+00
  0.00000000E+00  1.00000000E+00  0.00000000E+00  1.00000000E+00  0.00000000E+00
  1.00000000E+00  0.00000000E+00
Density Coordinates of each shell          R   N=         216
 -2.86582500E-01  7.35599919E-01  3.12016883E-06 -2.86582500E-01  7.35599919E-01
  3.12016883E-06 -2.86582500E-01  7.35599919E-01  3.12016883E-06 -2.86582500E-01
  7.35599919E-01  3.12016883E-06 -2.86582500E-01  7.35599919E-01  3.12016883E-06
 -2.86582500E-01  7.35599919E-01  3.12016883E-06 -2.86582500E-01  7.35599919E-01
  3.12016883E-06 -2.86582500E-01  7.35599919E-01  3.12016883E-06 -2.86582500E-01
  7.35599919E-01  3.12016883E-06 -2.86582500E-01  7.35599919E-01  3.12016883E-06
 -2.86582500E-01  7.35599919E-01  3.12016883E-06 -2.86582500E-01  7.35599919E-01
  3.12016883E-06 -2.86582500E-01  7.35599919E-01  3.12016883E-06 -2.86582500E-01
  7.35599919E-01  3.12016883E-06 -2.86582500E-01  7.35599919E-01  3.12016883E-06
 -2.86582500E-01  7.35599919E-01  3.12016883E-06  2.05496620E+00 -3.07003848E-01
 -2.68778719E-05  2.05496620E+00 -3.07003848E-01 -2.68778719E-05  2.05496620E+00
 -3.07003848E-01 -2.68778719E-05  2.05496620E+00 -3.07003848E-01 -2.68778719E-05
  2.05496620E+00 -3.07003848E-01 -2.68778719E-05  2.05496620E+00 -3.07003848E-01
 -2.68778719E-05  2.05496620E+00 -3.07003848E-01 -2.68778719E-05  2.05496620E+00
 -3.07003848E-01 -2.68778719E-05  2.05496620E+00 -3.07003848E-01 -2.68778719E-05
  2.05496620E+00 -3.07003848E-01 -2.68778719E-05  2.05496620E+00 -3.07003848E-01
 -2.68778719E-05  2.05496620E+00 -3.07003848E-01 -2.68778719E-05  2.05496620E+00
 -3.07003848E-01 -2.68778719E-05  2.05496620E+00 -3.07003848E-01 -2.68778719E-05
  2.05496620E+00 -3.07003848E-01 -2.68778719E-05  2.05496620E+00 -3.07003848E-01
 -2.68778719E-05 -2.29312839E+00 -4.59315232E-01 -6.61151850E-05 -2.29312839E+00
 -4.59315232E-01 -6.61151850E-05 -2.29312839E+00 -4.59315232E-01 -6.61151850E-05
 -2.29312839E+00 -4.59315232E-01 -6.61151850E-05 -2.29312839E+00 -4.59315232E-01
 -6.61151850E-05 -2.29312839E+00 -4.59315232E-01 -6.61151850E-05 -2.29312839E+00
 -4.59315232E-01 -6.61151850E-05 -2.29312839E+00 -4.59315232E-01 -6.61151850E-05
 -2.29312839E+00 -4.59315232E-01 -6.61151850E-05 -2.29312839E+00 -4.59315232E-01
 -6.61151850E-05 -2.29312839E+00 -4.59315232E-01 -6.61151850E-05 -2.29312839E+00
 -4.59315232E-01 -6.61151850E-05 -2.29312839E+00 -4.59315232E-01 -6.61151850E-05
 -2.29312839E+00 -4.59315232E-01 -6.61151850E-05 -2.29312839E+00 -4.59315232E-01
 -6.61151850E-05 -2.29312839E+00 -4.59315232E-01 -6.61151850E-05  2.25553512E+00
 -2.21973769E+00  2.51951464E-04  2.25553512E+00 -2.21973769E+00  2.51951464E-04
  2.25553512E+00 -2.21973769E+00  2.51951464E-04  2.25553512E+00 -2.21973769E+00
  2.51951464E-04  2.25553512E+00 -2.21973769E+00  2.51951464E-04  2.25553512E+00
 -2.21973769E+00  2.51951464E-04  2.25553512E+00 -2.21973769E+00  2.51951464E-04
  2.25553512E+00 -2.21973769E+00  2.51951464E-04  3.63325132E+00  7.86067141E-01
  4.27365335E-04  3.63325132E+00  7.86067141E-01  4.27365335E-04  3.63325132E+00
  7.86067141E-01  4.27365335E-04  3.63325132E+00  7.86067141E-01  4.27365335E-04
  3.63325132E+00  7.86067141E-01  4.27365335E-04  3.63325132E+00  7.86067141E-01
  4.27365335E-04  3.63325132E+00  7.86067141E-01  4.27365335E-04  3.63325132E+00
  7.86067141E-01  4.27365335E-04 -2.09027748E-01  2.84361983E+00  1.90287713E-05
 -2.09027748E-01  2.84361983E+00  1.90287713E-05 -2.09027748E-01  2.84361983E+00
  1.90287713E-05 -2.09027748E-01  2.84361983E+00  1.90287713E-05 -2.09027748E-01
  2.84361983E+00  1.90287713E-05 -2.09027748E-01  2.84361983E+00  1.90287713E-05
 -2.09027748E-01  2.84361983E+00  1.90287713E-05 -2.09027748E-01  2.84361983E+00
  1.90287713E-05
Constraint Structure                       R   N=          18
 -2.86582500E-01  7.35599919E-01  3.12016883E-06  2.05496620E+00 -3.07003848E-01
 -2.68778719E-05 -2.29312839E+00 -4.59315232E-01 -6.61151850E-05  2.25553512E+00
 -2.21973769E+00  2.51951464E-04  3.63325132E+00  7.86067141E-01  4.27365335E-04
 -2.09027748E-01  2.84361983E+00  1.90287713E-05
Num ILSW                                   I              100
ILSW                                       I   N=         100
           0           1           0           1           2           0
           0           0           0           0        1009          -1
           0           0           0           0           0           0
           0           0           1           0           1           0
           1           0           0           0           0           0
           0           0      100000           0          -1           0
           0           0           0           0           0           0
           0           0           0           1           0           0
           0           0           1           0           0           0
           0           0           4          40           0           0
           0           0           0           0           0           0
           0           0           0           0           0           0
           0           0           0           0           0           0
           0           0           0           0           0           0
           0           0           0           0           0           0
           0           0           0           0           0           0
           0           0           0           0
Num RLSW                                   I               40
RLSW                                       R   N=          40
  1.00000000E+00  1.00000000E+00  1.00000000E+00  1.00000000E+00  0.00000000E+00
  0.00000000E+00  0.00000000E+00  1.00000000E+00  0.00000000E+00  0.00000000E+00
  0.00000000E+00  0.00000000E+00  1.00000000E+00  0.00000000E+00  0.00000000E+00
  0.00000000E+00  0.00000000E+00  1.00000000E+00  0.00000000E+00  0.00000000E+00
  0.00000000E+00  0.00000000E+00  1.00000000E+00  0.00000000E+00  0.00000000E+00
  0.00000000E+00  0.00000000E+00  1.00000000E+00  0.00000000E+00  0.00000000E+00
  0.00000000E+00  0.00000000E+00  0.00000000E+00  0.00000000E+00  0.00000000E+00
  0.00000000E+00  0.00000000E+00  0.00000000E+00  1.00000000E+00  1.00000000E+00
MxBond                                     I                3
NBond                                      I   N=           6
           3           3           1           1           1           1
IBond                                      I   N=          18
           2           3           6           1           4           5
           1           0           0           2           0           0
           2           0           0           1           0           0
RBond                                      R   N=          18
  1.41000000E+00  2.00000000E+00  1.00000000E+00  1.41000000E+00  1.00000000E+00
  1.00000000E+00  2.00000000E+00  0.00000000E+00  0.00000000E+00  1.00000000E+00
  0.00000000E+00  0.00000000E+00  1.00000000E+00  0.00000000E+00  0.00000000E+00
  1.00000000E+00  0.00000000E+00  0.00000000E+00
Virial Ratio                               R      2.009341006059902E+00
SCF Energy                                 R     -1.697149113617376E+02
Total Energy                               R     -1.697149113617376E+02
RMS Force                                  R      6.145456513637957E-06
RMS Density                                R      5.262728697347667E-10
External E-field                           R   N=          35
  0.00000000E+00  0.00000000E+00  0.00000000E+00  0.00000000E+00  0.00000000E+00
  0.00000000E+00  0.00000000E+00  0.00000000E+00  0.00000000E+00  0.00000000E+00
  0.00000000E+00  0.00000000E+00  0.00000000E+00  0.00000000E+00  0.00000000E+00
  0.00000000E+00  0.00000000E+00  0.00000000E+00  0.00000000E+00  0.00000000E+00
  0.00000000E+00  0.00000000E+00  0.00000000E+00  0.00000000E+00  0.00000000E+00
  0.00000000E+00  0.00000000E+00  0.00000000E+00  0.00000000E+00  0.00000000E+00
  0.00000000E+00  0.00000000E+00  0.00000000E+00  0.00000000E+00  0.00000000E+00
IOpCl                                      I                0
IROHF                                      I                0
Alpha Orbital Energies                     R   N=          60
 -1.87424498E+01 -1.40291817E+01 -9.99110413E+00 -9.33879969E-01 -8.20536456E-01
 -5.57651865E-01 -4.89286133E-01 -4.17973567E-01 -3.55215342E-01 -3.50143004E-01
 -2.29007375E-01 -2.06105703E-01 -8.67127554E-03  6.93840631E-02  9.58778421E-02
  1.49592936E-01  2.34395206E-01  3.06396600E-01  5.01897774E-01  5.10288436E-01
  6.06264116E-01  6.16147290E-01  6.46434253E-01  6.75329684E-01  7.88841202E-01
  7.94906736E-01  7.98961291E-01  8.14960220E-01  9.33543420E-01  1.01100416E+00
  1.16814214E+00  1.21959515E+00  1.26802800E+00  1.31546152E+00  1.43437643E+00
  1.44999201E+00  1.68141221E+00  1.74348908E+00  1.76356748E+00  1.88480626E+00
  1.92714591E+00  2.00770539E+00  2.04021296E+00  2.05102300E+00  2.19125657E+00
  2.28528195E+00  2.40649219E+00  2.44059181E+00  2.53071221E+00  2.64501678E+00
  2.66327088E+00  2.76147348E+00  2.88768903E+00  2.91956909E+00  3.15162808E+00
  3.35507340E+00  3.54551158E+00  3.76768016E+00  3.85322360E+00  4.29512684E+00
Alpha MO coefficients                      R   N=        3600
  2.40907200E-05  5.68245277E-04 -2.02080940E-05 -6.91417354E-05 -2.77389780E-09
 -2.89852913E-03  2.26659008E-03  1.97120089E-03  7.78803469E-08 -5.78176664E-04
 -1.90735976E-04 -1.16729122E-05 -3.85981306E-04 -2.28837816E-08 -1.26613375E-08
 -5.48209125E-06  2.01277258E-05 -2.52040792E-05  5.31261288E-05 -2.55748184E-09
  1.34583781E-04 -2.65122054E-04 -7.96257890E-04  1.83641024E-09 -1.39664044E-04
  8.93378542E-05 -3.61917852E-06 -1.29228370E-04 -2.23530456E-08 -3.33294735E-08
  9.92500385E-01  2.67574850E-02  9.18745064E-04  5.19713236E-04  2.73241119E-08
  1.37998516E-02  1.30252745E-03  6.73532499E-04  5.18556746E-08 -8.23644215E-03
 -8.47681617E-03 -8.54234751E-03  2.27161713E-04  1.42609588E-08  7.16654562E-09
 -1.77685880E-04 -3.03964422E-04 -3.46110606E-05 -7.91076312E-05  2.65183791E-08
  1.97810733E-04  1.38759941E-05 -9.08547534E-06 -6.07170063E-05 -3.87921913E-08
 -3.47931119E-05 -6.10027183E-04 -1.16757182E-05  3.57624901E-05 -1.35100134E-09
  4.39650366E-05  2.03981238E-04  2.67765032E-04 -1.24249627E-04 -1.81567939E-08
 -5.16268673E-04 -1.39081591E-04  3.31347027E-05  5.25203355E-08  1.03492296E-04
  1.17159296E-04 -1.45992706E-05 -5.83113561E-06 -1.17975058E-08  6.03851442E-09
  9.92290716E-01  3.65347552E-02  6.78938449E-05 -1.27819373E-05  3.38969185E-07
  4.64673486E-03  6.98712295E-05 -4.14275229E-05 -6.08188795E-08 -9.02428455E-03
 -8.95308640E-03 -9.06127927E-03  4.37925293E-05  2.62373917E-08 -1.66108228E-09
 -1.95677420E-06  2.01593871E-05 -2.13366493E-05 -7.00755313E-06  3.08279653E-10
  1.25736962E-05 -7.55812633E-05  3.39514553E-05 -1.34541124E-08 -1.08809713E-04
  2.38539005E-05  4.08877363E-06  9.06555532E-06 -3.50662803E-09 -4.57144492E-09
  2.60157871E-04 -6.20021618E-04  5.33946089E-06 -3.34536789E-05 -3.74854406E-09
  2.62473104E-04 -6.19403486E-04  3.42412437E-05  2.06824182E-05 -5.01781756E-10
 -4.98874203E-05  2.53036434E-05 -5.35253463E-05  7.33983526E-05 -2.69486589E-09
  9.92341562E-01  5.17317309E-02 -1.66574380E-04 -6.45514264E-04 -8.41044088E-08
 -7.22750269E-03 -2.14655586E-03 -2.28392652E-03 -9.03802700E-09 -9.29830490E-03
 -9.99771503E-03 -1.07294722E-02  3.16344704E-04  2.33596791E-08  3.02443051E-08
 -1.68502997E-04 -1.84009731E-04  3.47713449E-04 -2.25856554E-04 -3.72704107E-08
  1.61325391E-03  4.26535698E-04  9.76363436E-04 -1.98258174E-08 -7.43977801E-04
 -4.91104912E-04 -3.48227145E-05  2.41264082E-04  2.00596944E-09  2.66660575E-08
 -6.07294369E-05  3.34211244E-04 -1.55818024E-04 -1.06594514E-04  3.54067643E-11
 -3.00788794E-03 -1.88651282E-03 -9.66642847E-04 -9.11939715E-08 -2.62850601E-04
  1.33746857E-04  4.11242566E-04 -3.69453028E-04 -2.77405692E-08 -1.65169092E-08
  2.74157594E-04  4.39505524E-04 -1.17584317E-04  2.31343750E-04 -4.91477301E-08
 -1.04299503E-04 -1.14436211E-04 -2.07063125E-04 -1.16977431E-05 -1.24309747E-08
 -4.28249031E-04  2.80224424E-03  7.90671057E-05  2.00696652E-04  1.25525941E-09
 -1.29126242E-01  2.52989132E-01 -1.05334517E-01 -1.04317707E-01 -5.38481086E-06
  7.13033738E-02  9.09330540E-03  2.89113653E-02  9.96332720E-07  1.30064317E-02
 -8.52292467E-03 -1.93536833E-02  1.60819942E-02  1.16590845E-06  7.22633349E-07
 -6.29095518E-02  1.28049802E-01 -4.62959105E-02  8.77811035E-03  7.09350882E-06
  1.21968410E-01 -2.72615901E-02 -3.53624173E-03  2.73042081E-06  8.03615709E-03
 -2.18614052E-03 -5.75702073E-03 -2.36529362E-03  4.66453164E-08  3.95895241E-09
 -1.78744424E-01  3.86141716E-01  1.35149931E-01  7.43711856E-02  4.34815187E-06
  3.69714389E-01  5.12689650E-02  2.27635777E-02  1.53880054E-06  6.50126102E-03
 -5.51196749E-03 -6.18028025E-03  9.53580556E-03  4.42325626E-07  2.76983718E-07
  3.12854327E-02  7.76830382E-04 -1.46752116E-03  4.68086663E-03 -5.04058171E-07
  2.77564588E-02  1.71052964E-03 -2.89810929E-03 -1.80743792E-03 -7.27735785E-07
  3.29325346E-02 -1.16075659E-02 -1.70289393E-03 -6.45046530E-03 -1.25523273E-07
 -3.58710313E-02  7.23629644E-02  2.12935320E-01 -8.04901223E-04  4.35218753E-06
  7.54332378E-03  8.16008518E-04  1.27978789E-02  1.77013489E-07  6.16420357E-03
 -1.51706124E-03 -2.72312583E-03 -2.09150914E-02 -2.90858057E-07 -3.93988167E-07
 -1.89558960E-01  3.93183294E-01 -2.05750449E-02  2.17394682E-02  3.13179313E-05
  4.03727173E-01 -1.34607250E-02  1.21056201E-02  1.40441344E-05 -1.81979139E-03
 -1.81513063E-03 -1.50682133E-02 -2.80591610E-03  1.37438194E-06  3.68431402E-07
  8.63052595E-02 -1.92509115E-01 -3.63969295E-02 -3.76755390E-02 -1.53405105E-06
 -1.76470415E-01 -1.73544987E-03 -1.16223699E-02 -2.07205673E-07  1.93799863E-03
 -5.66514237E-04  7.51846140E-04 -2.82392495E-03  2.28703606E-08 -1.22692403E-07
  1.14714675E-01  8.65655305E-03 -1.58134080E-03  1.51801129E-02 -1.64392720E-06
  1.22222269E-01  1.00126902E-02 -1.37360332E-02 -8.95754168E-03 -3.33722123E-06
  2.02126236E-02  2.20386454E-03  2.53993892E-03 -1.92901220E-03  5.21130385E-08
 -1.33980103E-01  2.88561585E-01  1.61793328E-01  1.18301472E-01 -7.95305043E-06
  2.28560241E-01  5.09203314E-02  5.63999056E-02  8.44015443E-07 -7.18786487E-03
 -4.80540405E-03 -9.35345529E-03 -6.23157218E-03 -1.77785190E-06  6.14620053E-07
  4.92886691E-02 -1.06285059E-01 -2.58732855E-01  2.29958562E-01 -4.06752165E-05
 -1.53829564E-01 -1.05096651E-01  9.26956111E-02 -1.95270335E-05  5.54104804E-03
 -1.47832168E-03  2.73447750E-03 -1.02522497E-02 -3.96065953E-06  2.91762516E-06
  6.16493262E-02 -1.42226468E-01  3.98705568E-02  4.14637809E-02 -2.13117929E-06
 -1.60239526E-01  3.28201061E-02  2.75397449E-02 -1.08230782E-06  5.48252160E-03
  2.93860902E-03 -1.93730175E-03  5.74884335E-03 -1.54137837E-07 -5.42957258E-08
 -1.72120176E-01 -6.51734496E-02 -3.62905126E-03 -1.25691245E-02  1.82274370E-06
 -8.63023609E-02 -3.06262255E-02  5.88505449E-04  9.88137139E-03  1.03653806E-06
  1.53761796E-01  5.85900316E-02  1.50641159E-03 -1.03601075E-02 -2.72465682E-07