 Entering Gaussian System, Link 0=g09
 Input=freq.com
 Output=freq.log
 Initial command:
 /home/diegoa/progs/g09/l1.exe /home/diegoa/g09scratch/Gau-20622.inp -scrdir=/home/diegoa/g09scratch/
 Default is to use a total of   4 processors:
                                4 via shared-memory
                                1 via Linda
 Entering Link 1 = /home/diegoa/progs/g09/l1.exe PID=     20625.
  
 Copyright (c) 1988,1990,1992,1993,1995,1998,2003,2009, Gaussian, Inc.
                  All Rights Reserved.
  
 This is part of the Gaussian(R) 09 program.  It is based on
 the Gaussian(R) 03 system (copyright 2003, Gaussian, Inc.),
 the Gaussian(R) 98 system (copyright 1998, Gaussian, Inc.),
 the Gaussian(R) 94 system (copyright 1995, Gaussian, Inc.),
 the Gaussian 92(TM) system (copyright 1992, Gaussian, Inc.),
 the Gaussian 90(TM) system (copyright 1990, Gaussian, Inc.),
 the Gaussian 88(TM) system (copyright 1988, Gaussian, Inc.),
 the Gaussian 86(TM) system (copyright 1986, Carnegie Mellon
 University), and the Gaussian 82(TM) system (copyright 1983,
 Carnegie Mellon University). Gaussian is a federally registered
 trademark of Gaussian, Inc.
  
 This software contains proprietary and confidential information,
 including trade secrets, belonging to Gaussian, Inc.
  
 This software is provided under written license and may be
 used, copied, transmitted, or stored only in accord with that
 written license.
  
 The following legend is applicable only to US Government
 contracts under FAR:
  
                    RESTRICTED RIGHTS LEGEND
  
 Use, reproduction and disclosure by the US Government is
 subject to restrictions as set forth in subparagraphs (a)
 and (c) of the Commercial Computer Software - Restricted
 Rights clause in FAR 52.227-19.
  
 Gaussian, Inc.
 340 Quinnipiac St., Bldg. 40, Wallingford CT 06492
  
  
 ---------------------------------------------------------------
 Warning -- This program may not be used in any manner that
 competes with the business of Gaussian, Inc. or will provide
 assistance to any competitor of Gaussian, Inc.  The licensee
 of this program is prohibited from giving any competitor of
 Gaussian, Inc. access to this program.  By using this program,
 the user acknowledges that Gaussian, Inc. is engaged in the
 business of creating and licensing software in the field of
 computational chemistry and represents and warrants to the
 licensee that it is not a competitor of Gaussian, Inc. and that
 it will not use this program in any manner prohibited above.
 ---------------------------------------------------------------
  

 Cite this work as:
 Gaussian 09, Revision A.01,
 M. J. Frisch, G. W. Trucks, H. B. Schlegel, G. E. Scuseria, 
 M. A. Robb, J. R. Cheeseman, G. Scalmani, V. Barone, B. Mennucci, 
 G. A. Petersson, H. Nakatsuji, M. Caricato, X. Li, H. P. Hratchian, 
 A. F. Izmaylov, J. Bloino, G. Zheng, J. L. Sonnenberg, M. Hada, 
 M. Ehara, K. Toyota, R. Fukuda, J. Hasegawa, M. Ishida, T. Nakajima, 
 Y. Honda, O. Kitao, H. Nakai, T. Vreven, J. A. Montgomery, Jr., 
 J. E. Peralta, F. Ogliaro, M. Bearpark, J. J. Heyd, E. Brothers, 
 K. N. Kudin, V. N. Staroverov, R. Kobayashi, J. Normand, 
 K. Raghavachari, A. Rendell, J. C. Burant, S. S. Iyengar, J. Tomasi, 
 M. Cossi, N. Rega, J. M. Millam, M. Klene, J. E. Knox, J. B. Cross, 
 V. Bakken, C. Adamo, J. Jaramillo, R. Gomperts, R. E. Stratmann, 
 O. Yazyev, A. J. Austin, R. Cammi, C. Pomelli, J. W. Ochterski, 
 R. L. Martin, K. Morokuma, V. G. Zakrzewski, G. A. Voth, 
 P. Salvador, J. J. Dannenberg, S. Dapprich, A. D. Daniels, 
 O. Farkas, J. B. Foresman, J. V. Ortiz, J. Cioslowski, 
 and D. J. Fox, Gaussian, Inc., Wallingford CT, 2009.
 
 ******************************************
 Gaussian 09:  EM64L-G09RevA.01  8-May-2009
                31-Oct-2019 
 ******************************************
 %chk=freq.chk
 %NProcShared=4
 Will use up to    4 processors via shared memory.
 Default route:  MP2=Direct MaxDisk=1000GB DenFit
 -----------------------------------------------------------------
 # pbepbe/6-31G** opt(tight) Freq=(savenormalmodes,raman) SCRF=PCM
 -----------------------------------------------------------------
 1/7=10,14=-1,18=20,19=15,26=3,38=1/1,3;
 2/9=110,12=2,17=6,18=5,40=1/2;
 3/5=1,6=6,7=101,11=2,16=1,25=1,30=1,70=2201,71=1,72=1,74=1009,82=47/1,2,3;
 4//1;
 5/5=2,38=5/2;
 6/7=2,8=2,9=2,10=2,28=1/1;
 7/92=1/1,2,3,16;
 1/7=10,14=-1,18=20,19=15/3(2);
 2/9=110/2;
 99//99;
 2/9=110/2;
 3/5=1,6=6,7=101,11=2,16=1,25=1,30=1,70=2205,71=1,74=1009,82=47/1,2,3;
 4/5=5,16=3/1;
 5/5=2,38=5/2;
 7/92=1/1,2,3,16;
 1/7=10,14=-1,18=20,19=15/3(-5);
 2/9=110/2;
 6/7=2,8=2,9=2,10=2,19=2,28=1/1;
 99/9=1/99;
 -----
 Title
 -----
 Symbolic Z-matrix:
 Charge =  0 Multiplicity = 1
 6                    -0.15359   0.38985  -0.00012 
 7                     1.08781  -0.15869  -0.00009 
 8                    -1.18865  -0.23917   0.00005 
 1                     1.17741  -1.1643    0.00018 
 1                     1.92007   0.4088    0.00031 
 1                    -0.12309   1.49569   0.00006 
 

 GradGradGradGradGradGradGradGradGradGradGradGradGradGradGradGradGradGrad
 Berny optimization.
 Initialization pass.
                           ----------------------------
                           !    Initial Parameters    !
                           ! (Angstroms and Degrees)  !
 --------------------------                            --------------------------
 ! Name  Definition              Value          Derivative Info.                !
 --------------------------------------------------------------------------------
 ! R1    R(1,2)                  1.3572         estimate D2E/DX2                !
 ! R2    R(1,3)                  1.2112         estimate D2E/DX2                !
 ! R3    R(1,6)                  1.1063         estimate D2E/DX2                !
 ! R4    R(2,4)                  1.0096         estimate D2E/DX2                !
 ! R5    R(2,5)                  1.0073         estimate D2E/DX2                !
 ! A1    A(2,1,3)              124.8735         estimate D2E/DX2                !
 ! A2    A(2,1,6)              112.2593         estimate D2E/DX2                !
 ! A3    A(3,1,6)              122.8671         estimate D2E/DX2                !
 ! A4    A(1,2,4)              118.9303         estimate D2E/DX2                !
 ! A5    A(1,2,5)              121.872          estimate D2E/DX2                !
 ! A6    A(4,2,5)              119.1976         estimate D2E/DX2                !
 ! D1    D(3,1,2,4)             -0.0064         estimate D2E/DX2                !
 ! D2    D(3,1,2,5)           -179.9636         estimate D2E/DX2                !
 ! D3    D(6,1,2,4)            179.9728         estimate D2E/DX2                !
 ! D4    D(6,1,2,5)              0.0155         estimate D2E/DX2                !
 --------------------------------------------------------------------------------
 Trust Radius=3.00D-01 FncErr=1.00D-07 GrdErr=1.00D-06
 Number of steps in this run=  25 maximum allowed number of steps= 100.
 GradGradGradGradGradGradGradGradGradGradGradGradGradGradGradGradGradGrad

                          Input orientation:                          
 ---------------------------------------------------------------------
 Center     Atomic      Atomic             Coordinates (Angstroms)
 Number     Number       Type             X           Y           Z
 ---------------------------------------------------------------------
      1          6           0       -0.153588    0.389845   -0.000116
      2          7           0        1.087813   -0.158690   -0.000092
      3          8           0       -1.188645   -0.239167    0.000052
      4          1           0        1.177406   -1.164300    0.000175
      5          1           0        1.920074    0.408803    0.000305
      6          1           0       -0.123090    1.495692    0.000063
 ---------------------------------------------------------------------
                    Distance matrix (angstroms):
                    1          2          3          4          5
     1  C    0.000000
     2  N    1.357191   0.000000
     3  O    1.211197   2.277880   0.000000
     4  H    2.046194   1.009593   2.540486   0.000000
     5  H    2.073749   1.007327   3.175531   1.739600   0.000000
     6  H    1.106267   2.050187   2.035962   2.960886   2.314270
                    6
     6  H    0.000000
 Stoichiometry    CH3NO
 Framework group  C1[X(CH3NO)]
 Deg. of freedom    12
 Full point group                 C1      NOp   1
 Largest Abelian subgroup         C1      NOp   1
 Largest concise Abelian subgroup C1      NOp   1
                         Standard orientation:                         
 ---------------------------------------------------------------------
 Center     Atomic      Atomic             Coordinates (Angstroms)
 Number     Number       Type             X           Y           Z
 ---------------------------------------------------------------------
      1          6           0       -0.161453    0.387024   -0.000100
      2          7           0        1.081733   -0.157452   -0.000076
      3          8           0       -1.194449   -0.245367    0.000068
      4          1           0        1.174611   -1.162764    0.000191
      5          1           0        1.912136    0.412757    0.000321
      6          1           0       -0.134568    1.492965    0.000079
 ---------------------------------------------------------------------
 Rotational constants (GHZ):     73.6451615     11.3730058      9.8516222
 Standard basis: 6-31G(d,p) (6D, 7F)
 There are    60 symmetry adapted basis functions of A   symmetry.
 Integral buffers will be    131072 words long.
 Raffenetti 2 integral format.
 Two-electron integral symmetry is turned on.
    60 basis functions,   105 primitive gaussians,    60 cartesian basis functions
    12 alpha electrons       12 beta electrons
       nuclear repulsion energy        71.2532654932 Hartrees.
 NAtoms=    6 NActive=    6 NUniq=    6 SFac= 7.50D-01 NAtFMM=   80 NAOKFM=F Big=F
 Standard density basis: Auto (5D, 7F)
   276 Density fitting functions
 There are   276 symmetry adapted density basis functions of A   symmetry.
 ------------------------------------------------------------------------------
 Polarizable Continuum Model (PCM)
 =================================
 Model                : PCM.
 Atomic radii         : UFF (Universal Force Field).
 Polarization charges : Total charges.
 Charge compensation  : None.
 Solution method      : Matrix inversion.
 Cavity type          : Scaled VdW (van der Waals Surface) (Alpha=1.100).
 Cavity algorithm     : GePol (No added spheres)
                        Default sphere list used, NSphG=    6.
                        Lebedev-Laikov grids with approx.  5.0 points / Ang**2.
                        Smoothing algorithm: Karplus/York (Gamma=1.0000).
                        Polarization charges: spherical gaussians, with
                                              point-specific exponents (IZeta= 3).
                        Self-potential: point-specific (ISelfS= 7).
                        Self-field    : sphere-specific E.n sum rule (ISelfD= 2).
 1st derivatives      : Analytical E(r).r(x)/FMM algorithm (CHGder, D1EAlg=3).
                        Cavity 1st derivative terms included.
 Solvent              : Water, Eps=  78.355300 Eps(inf)=   1.777849
 ------------------------------------------------------------------------------
 Spheres list:
 ISph  on   Nord    Re0     Alpha      Xe            Ye            Ze
    1   C      1    1.926   1.100     -0.161453      0.387024     -0.000100
    2   N      2    1.830   1.100      1.081733     -0.157452     -0.000076
    3   O      3    1.750   1.100     -1.194449     -0.245367      0.000068
    4   H      4    1.443   1.100      1.174611     -1.162764      0.000191
    5   H      5    1.443   1.100      1.912136      0.412757      0.000321
    6   H      6    1.443   1.100     -0.134568      1.492965      0.000079
 ------------------------------------------------------------------------------
 One-electron integrals computed using PRISM.
 NBasis=    60 RedAO= T  NBF=    60
 NBsUse=    60 1.00D-06 NBFU=    60
 NBasis=       60 NBas6D=       60 NTT=        1830   NTT6D=     1830
 NDBShl=       48 NDBF=        276 NDBF6D=      318  NNucDB=        0
 IDenFi=        2 ISolve=        0 FullAP=F BlkAPC=T NucTyp=        0
 TolInv= 1.00D-05 TolIt=  1.00D-10 IR12=0.
 Petite list used in FoFDir.
 MinBra= 0 MaxBra= 3 Meth= 1.
 IRaf=       0 NMat=   1 IRICut=       1 DoRegI=T DoRafI=F ISym2E= 1 JSym2E=1.
  NDBF=   276  NBFD=   276
 NRank=   276 NBFDU=   276
 S*AI*S=  5.04608465038    
 Harris functional with IExCor= 1009 diagonalized for initial guess.
 ExpMin= 1.61D-01 ExpMax= 5.48D+03 ExpMxC= 8.25D+02 IAcc=1 IRadAn=         1 AccDes= 0.00D+00
 HarFok:  IExCor= 1009 AccDes= 0.00D+00 IRadAn=         1 IDoV= 1
 ScaDFX=  1.000000  1.000000  1.000000  1.000000
 FoFCou: FMM=F IPFlag=           0 FMFlag=      100000 FMFlg1=           0
         NFxFlg=           0 DoJE=T BraDBF=F KetDBF=T FulRan=T
         Omega=  0.000000  0.000000  1.000000  0.000000  0.000000 ICntrl=     500 IOpCl=  0
         NMat0=    1 NMatS0=    1 NMatT0=    0 NMatD0=    1 NMtDS0=    0 NMtDT0=    0
         I1Cent=           4 NGrid=           0.
 Petite list used in FoFCou.
 Initial guess orbital symmetries:
       Occupied  (A) (A) (A) (A) (A) (A) (A) (A) (A) (A) (A) (A)
       Virtual   (A) (A) (A) (A) (A) (A) (A) (A) (A) (A) (A) (A)
                 (A) (A) (A) (A) (A) (A) (A) (A) (A) (A) (A) (A)
                 (A) (A) (A) (A) (A) (A) (A) (A) (A) (A) (A) (A)
                 (A) (A) (A) (A) (A) (A) (A) (A) (A) (A) (A) (A)
 The electronic state of the initial guess is 1-A.
 Requested convergence on RMS density matrix=1.00D-08 within 128 cycles.
 Requested convergence on MAX density matrix=1.00D-06.
 Requested convergence on             energy=1.00D-06.
 No special actions if energy rises.
 FoFCou: FMM=F IPFlag=           0 FMFlag=      100000 FMFlg1=           0
         NFxFlg=           0 DoJE=T BraDBF=T KetDBF=F FulRan=T
         Omega=  0.000000  0.000000  1.000000  0.000000  0.000000 ICntrl=     500 IOpCl=  0
         NMat0=    1 NMatS0=    1 NMatT0=    0 NMatD0=    1 NMtDS0=    0 NMtDT0=    0
         I1Cent=           5 NGrid=           0.
 Symmetry not used in FoFCou.
 Error on total polarization charges =  0.00341
 SCF Done:  E(RPBE-PBE) =  -169.713816539     A.U. after   10 cycles
             Convg  =    0.6586D-08             -V/T =  2.0085

 **********************************************************************

            Population analysis using the SCF density.

 **********************************************************************

 Orbital symmetries:
       Occupied  (A) (A) (A) (A) (A) (A) (A) (A) (A) (A) (A) (A)
       Virtual   (A) (A) (A) (A) (A) (A) (A) (A) (A) (A) (A) (A)
                 (A) (A) (A) (A) (A) (A) (A) (A) (A) (A) (A) (A)
                 (A) (A) (A) (A) (A) (A) (A) (A) (A) (A) (A) (A)
                 (A) (A) (A) (A) (A) (A) (A) (A) (A) (A) (A) (A)
 The electronic state is 1-A.
 Alpha  occ. eigenvalues --  -18.74220 -14.02426  -9.98745  -0.94607  -0.82062
 Alpha  occ. eigenvalues --   -0.55642  -0.49128  -0.41937  -0.35867  -0.35500
 Alpha  occ. eigenvalues --   -0.22909  -0.20752
 Alpha virt. eigenvalues --   -0.00324   0.07369   0.10086   0.15391   0.23735
 Alpha virt. eigenvalues --    0.31010   0.50028   0.51077   0.61143   0.63600
 Alpha virt. eigenvalues --    0.64781   0.67675   0.79236   0.79464   0.80529
 Alpha virt. eigenvalues --    0.81766   0.93402   1.01214   1.16898   1.22871
 Alpha virt. eigenvalues --    1.26648   1.32047   1.43936   1.44807   1.68618
 Alpha virt. eigenvalues --    1.74043   1.77032   1.90747   1.93810   2.01610
 Alpha virt. eigenvalues --    2.04772   2.06363   2.20078   2.29707   2.42107
 Alpha virt. eigenvalues --    2.45006   2.54470   2.67385   2.68184   2.78782
 Alpha virt. eigenvalues --    2.90884   2.94404   3.17552   3.37825   3.57050
 Alpha virt. eigenvalues --    3.77662   3.87150   4.30185
          Condensed to atoms (all electrons):
              1          2          3          4          5          6
     1  C    4.433871   0.272708   0.600058  -0.009978  -0.006742   0.373236
     2  N    0.272708   6.850151  -0.092093   0.311812   0.319635  -0.117746
     3  O    0.600058  -0.092093   8.017232   0.006992   0.003415  -0.059672
     4  H   -0.009978   0.311812   0.006992   0.409367  -0.018983   0.008103
     5  H   -0.006742   0.319635   0.003415  -0.018983   0.397094   0.004162
     6  H    0.373236  -0.117746  -0.059672   0.008103   0.004162   0.702472
 Mulliken atomic charges:
              1
     1  C    0.336846
     2  N   -0.544467
     3  O   -0.475932
     4  H    0.292688
     5  H    0.301420
     6  H    0.089446
 Sum of Mulliken atomic charges =   0.00000
 Mulliken charges with hydrogens summed into heavy atoms:
              1
     1  C    0.426291
     2  N    0.049641
     3  O   -0.475932
 Sum of Mulliken charges with hydrogens summed into heavy atoms =   0.00000
 Electronic spatial extent (au):  <R**2>=            144.8010
 Charge=              0.0000 electrons
 Dipole moment (field-independent basis, Debye):
    X=              4.4144    Y=              0.7658    Z=              0.0009  Tot=              4.4804
 Quadrupole moment (field-independent basis, Debye-Ang):
   XX=            -16.8710   YY=            -14.8938   ZZ=            -18.3230
   XY=             -1.1455   XZ=              0.0022   YZ=             -0.0001
 Traceless Quadrupole moment (field-independent basis, Debye-Ang):
   XX=             -0.1750   YY=              1.8021   ZZ=             -1.6271
   XY=             -1.1455   XZ=              0.0022   YZ=             -0.0001
 Octapole moment (field-independent basis, Debye-Ang**2):
  XXX=             14.1267  YYY=             -2.4981  ZZZ=              0.0012  XYY=              3.0227
  XXY=              0.9685  XXZ=              0.0036  XZZ=             -1.1783  YZZ=             -0.3640
  YYZ=              0.0011  XYZ=             -0.0002
 Hexadecapole moment (field-independent basis, Debye-Ang**3):
 XXXX=           -102.3746 YYYY=            -32.1802 ZZZZ=            -15.3786 XXXY=              2.5394
 XXXZ=              0.0077 YYYX=             -3.0301 YYYZ=              0.0003 ZZZX=              0.0019
 ZZZY=              0.0004 XXYY=            -21.9438 XXZZ=            -23.1064 YYZZ=             -8.9436
 XXYZ=              0.0004 YYXZ=              0.0014 ZZXY=              0.2626
 N-N= 7.125326549323D+01 E-N=-5.404135758669D+02  KE= 1.682758989351D+02
 D1PCM: PCM CHGder 1st derivatives, ID1Alg=3 FixD1E=F DoIter=F DoCFld=F I1PDM=0.
 Calling FoFJK, ICntrl=      2527 FMM=F ISym2X=0 I1Cent= 4 IOpClX= 0 NMat=1 NMatS=1 NMatT=0.
 ***** Axes restored to original set *****
 -------------------------------------------------------------------
 Center     Atomic                   Forces (Hartrees/Bohr)
 Number     Number              X              Y              Z
 -------------------------------------------------------------------
      1        6           0.028653315    0.013356509    0.000046693
      2        7          -0.004427894    0.001951811   -0.000014273
      3        8          -0.033618762   -0.019611187   -0.000016178
      4        1           0.001864892   -0.006953469    0.000001328
      5        1           0.006037427    0.004176042   -0.000001222
      6        1           0.001491021    0.007080294   -0.000016347
 -------------------------------------------------------------------
 Cartesian Forces:  Max     0.033618762 RMS     0.012237736

 GradGradGradGradGradGradGradGradGradGradGradGradGradGradGradGradGradGrad
 Berny optimization.
 Internal  Forces:  Max     0.038919532 RMS     0.010630389
 Search for a local minimum.
 Step number   1 out of a maximum of   25
 All quantities printed in internal units (Hartrees-Bohrs-Radians)
 Mixed Optimization -- RFO/linear search
 Second derivative matrix not updated -- first step.
 The second derivative matrix:
                          R1        R2        R3        R4        R5
           R1           0.53519
           R2           0.00000   0.99392
           R3           0.00000   0.00000   0.32998
           R4           0.00000   0.00000   0.00000   0.46041
           R5           0.00000   0.00000   0.00000   0.00000   0.46423
           A1           0.00000   0.00000   0.00000   0.00000   0.00000
           A2           0.00000   0.00000   0.00000   0.00000   0.00000
           A3           0.00000   0.00000   0.00000   0.00000   0.00000
           A4           0.00000   0.00000   0.00000   0.00000   0.00000
           A5           0.00000   0.00000   0.00000   0.00000   0.00000
           A6           0.00000   0.00000   0.00000   0.00000   0.00000
           D1           0.00000   0.00000   0.00000   0.00000   0.00000
           D2           0.00000   0.00000   0.00000   0.00000   0.00000
           D3           0.00000   0.00000   0.00000   0.00000   0.00000
           D4           0.00000   0.00000   0.00000   0.00000   0.00000
                          A1        A2        A3        A4        A5
           A1           0.25000
           A2           0.00000   0.16000
           A3           0.00000   0.00000   0.16000
           A4           0.00000   0.00000   0.00000   0.16000
           A5           0.00000   0.00000   0.00000   0.00000   0.16000
           A6           0.00000   0.00000   0.00000   0.00000   0.00000
           D1           0.00000   0.00000   0.00000   0.00000   0.00000
           D2           0.00000   0.00000   0.00000   0.00000   0.00000
           D3           0.00000   0.00000   0.00000   0.00000   0.00000
           D4           0.00000   0.00000   0.00000   0.00000   0.00000
                          A6        D1        D2        D3        D4
           A6           0.16000
           D1           0.00000   0.02258
           D2           0.00000   0.00000   0.02258
           D3           0.00000   0.00000   0.00000   0.02258
           D4           0.00000   0.00000   0.00000   0.00000   0.02258
     Eigenvalues ---    0.02258   0.02258   0.02258   0.16000   0.16000
     Eigenvalues ---    0.16000   0.22000   0.32998   0.46041   0.46423
     Eigenvalues ---    0.53519   0.993921000.000001000.000001000.00000
 RFO step:  Lambda=-1.99303189D-03 EMin= 2.25806287D-02
 Linear search not attempted -- first point.
 Iteration  1 RMS(Cart)=  0.01686564 RMS(Int)=  0.00007181
 Iteration  2 RMS(Cart)=  0.00012168 RMS(Int)=  0.00000015
 Iteration  3 RMS(Cart)=  0.00000001 RMS(Int)=  0.00000015
 Variable       Old X    -DE/DX   Delta X   Delta X   Delta X     New X
                                 (Linear)    (Quad)   (Total)
    R1        2.56472   0.00351   0.00000   0.00654   0.00654   2.57126
    R2        2.28883   0.03892   0.00000   0.03908   0.03908   2.32791
    R3        2.09054   0.00711   0.00000   0.02143   0.02143   2.11197
    R4        1.90785   0.00709   0.00000   0.01532   0.01532   1.92318
    R5        1.90357   0.00735   0.00000   0.01576   0.01576   1.91933
    A1        2.17945   0.00194   0.00000   0.00873   0.00873   2.18819
    A2        1.95930  -0.00231   0.00000  -0.01264  -0.01264   1.94665
    A3        2.14444   0.00037   0.00000   0.00391   0.00391   2.14834
    A4        2.07573   0.00163   0.00000   0.01008   0.01008   2.08581
    A5        2.12707  -0.00088   0.00000  -0.00541  -0.00541   2.12166
    A6        2.08039  -0.00076   0.00000  -0.00468  -0.00468   2.07571
    D1       -0.00011  -0.00002   0.00000  -0.00073  -0.00073  -0.00084
    D2       -3.14096  -0.00002   0.00000  -0.00090  -0.00090   3.14133
    D3        3.14112   0.00002   0.00000   0.00077   0.00077  -3.14129
    D4        0.00027   0.00001   0.00000   0.00060   0.00060   0.00088
         Item               Value     Threshold  Converged?
 Maximum Force            0.038920     0.000015     NO 
 RMS     Force            0.010630     0.000010     NO 
 Maximum Displacement     0.048045     0.000060     NO 
 RMS     Displacement     0.016914     0.000040     NO 
 Predicted change in Energy=-9.994246D-04
 GradGradGradGradGradGradGradGradGradGradGradGradGradGradGradGradGradGrad

                          Input orientation:                          
 ---------------------------------------------------------------------
 Center     Atomic      Atomic             Coordinates (Angstroms)
 Number     Number       Type             X           Y           Z
 ---------------------------------------------------------------------
      1          6           0       -0.156427    0.388024    0.000328
      2          7           0        1.088691   -0.160658    0.000015
      3          8           0       -1.214069   -0.243572   -0.000138
      4          1           0        1.190237   -1.173281    0.000088
      5          1           0        1.924156    0.416900    0.000206
      6          1           0       -0.112618    1.504771   -0.000111
 ---------------------------------------------------------------------
                    Distance matrix (angstroms):
                    1          2          3          4          5
     1  C    0.000000
     2  N    1.360650   0.000000
     3  O    1.231877   2.304252   0.000000
     4  H    2.061839   1.017702   2.577799   0.000000
     5  H    2.080783   1.015665   3.206974   1.751375   0.000000
     6  H    1.117606   2.053484   2.066373   2.978153   2.309093
                    6
     6  H    0.000000
 Stoichiometry    CH3NO
 Framework group  C1[X(CH3NO)]
 Deg. of freedom    12
 Full point group                 C1      NOp   1
 Largest Abelian subgroup         C1      NOp   1
 Largest concise Abelian subgroup C1      NOp   1
                         Standard orientation:                         
 ---------------------------------------------------------------------
 Center     Atomic      Atomic             Coordinates (Angstroms)
 Number     Number       Type             X           Y           Z
 ---------------------------------------------------------------------
      1          6           0       -0.154979    0.387988    0.000280
      2          7           0        1.089770   -0.161529   -0.000033
      3          8           0       -1.213045   -0.242898   -0.000186
      4          1           0        1.190637   -1.174220    0.000040
      5          1           0        1.925623    0.415469    0.000158
      6          1           0       -0.110421    1.504705   -0.000159
 ---------------------------------------------------------------------
 Rotational constants (GHZ):     72.8659270     11.1196559      9.6474185
 Standard basis: 6-31G(d,p) (6D, 7F)
 There are    60 symmetry adapted basis functions of A   symmetry.
 Integral buffers will be    131072 words long.
 Raffenetti 2 integral format.
 Two-electron integral symmetry is turned on.
    60 basis functions,   105 primitive gaussians,    60 cartesian basis functions
    12 alpha electrons       12 beta electrons
       nuclear repulsion energy        70.5319306048 Hartrees.
 NAtoms=    6 NActive=    6 NUniq=    6 SFac= 7.50D-01 NAtFMM=   80 NAOKFM=F Big=F
 Standard density basis: Auto (5D, 7F)
   276 Density fitting functions
 There are   276 symmetry adapted density basis functions of A   symmetry.
 ------------------------------------------------------------------------------
 Polarizable Continuum Model (PCM)
 =================================
 Model                : PCM.
 Atomic radii         : UFF (Universal Force Field).
 Polarization charges : Total charges.
 Charge compensation  : None.
 Solution method      : Matrix inversion.
 Cavity type          : Scaled VdW (van der Waals Surface) (Alpha=1.100).
 Cavity algorithm     : GePol (No added spheres)
                        Default sphere list used, NSphG=    6.
                        Lebedev-Laikov grids with approx.  5.0 points / Ang**2.
                        Smoothing algorithm: Karplus/York (Gamma=1.0000).
                        Polarization charges: spherical gaussians, with
                                              point-specific exponents (IZeta= 3).
                        Self-potential: point-specific (ISelfS= 7).
                        Self-field    : sphere-specific E.n sum rule (ISelfD= 2).
 1st derivatives      : Analytical E(r).r(x)/FMM algorithm (CHGder, D1EAlg=3).
                        Cavity 1st derivative terms included.
 Solvent              : Water, Eps=  78.355300 Eps(inf)=   1.777849
 ------------------------------------------------------------------------------
 Spheres list:
 ISph  on   Nord    Re0     Alpha      Xe            Ye            Ze
    1   C      1    1.926   1.100     -0.154979      0.387988      0.000280
    2   N      2    1.830   1.100      1.089770     -0.161529     -0.000033
    3   O      3    1.750   1.100     -1.213045     -0.242898     -0.000186
    4   H      4    1.443   1.100      1.190637     -1.174220      0.000040
    5   H      5    1.443   1.100      1.925623      0.415469      0.000158
    6   H      6    1.443   1.100     -0.110421      1.504705     -0.000159
 ------------------------------------------------------------------------------
 One-electron integrals computed using PRISM.
 NBasis=    60 RedAO= T  NBF=    60
 NBsUse=    60 1.00D-06 NBFU=    60
 NBasis=       60 NBas6D=       60 NTT=        1830   NTT6D=     1830
 NDBShl=       48 NDBF=        276 NDBF6D=      318  NNucDB=        0
 IDenFi=        2 ISolve=        0 FullAP=F BlkAPC=T NucTyp=        0
 TolInv= 1.00D-05 TolIt=  1.00D-10 IR12=0.
 Petite list used in FoFDir.
 MinBra= 0 MaxBra= 3 Meth= 1.
 IRaf=       0 NMat=   1 IRICut=       1 DoRegI=T DoRafI=F ISym2E= 1 JSym2E=1.
  NDBF=   276  NBFD=   276
 NRank=   276 NBFDU=   276
 S*AI*S=  5.04722499367    
 Initial guess read from the read-write file.
 B after Tr=     0.000000    0.000000    0.000000
         Rot=    1.000000    0.000000    0.000000    0.000000 Ang=   0.00 deg.
 Initial guess orbital symmetries:
       Occupied  (A) (A) (A) (A) (A) (A) (A) (A) (A) (A) (A) (A)
       Virtual   (A) (A) (A) (A) (A) (A) (A) (A) (A) (A) (A) (A)
                 (A) (A) (A) (A) (A) (A) (A) (A) (A) (A) (A) (A)
                 (A) (A) (A) (A) (A) (A) (A) (A) (A) (A) (A) (A)
                 (A) (A) (A) (A) (A) (A) (A) (A) (A) (A) (A) (A)
 Harris functional with IExCor= 1009 diagonalized for initial guess.
 ExpMin= 1.61D-01 ExpMax= 5.48D+03 ExpMxC= 8.25D+02 IAcc=1 IRadAn=         1 AccDes= 0.00D+00
 HarFok:  IExCor= 1009 AccDes= 0.00D+00 IRadAn=         1 IDoV= 1
 ScaDFX=  1.000000  1.000000  1.000000  1.000000
 FoFCou: FMM=F IPFlag=           0 FMFlag=      100000 FMFlg1=           0
         NFxFlg=           0 DoJE=T BraDBF=F KetDBF=T FulRan=T
         Omega=  0.000000  0.000000  1.000000  0.000000  0.000000 ICntrl=     500 IOpCl=  0
         NMat0=    1 NMatS0=    1 NMatT0=    0 NMatD0=    1 NMtDS0=    0 NMtDT0=    0
         I1Cent=           4 NGrid=           0.
 Petite list used in FoFCou.
 Requested convergence on RMS density matrix=1.00D-08 within 128 cycles.
 Requested convergence on MAX density matrix=1.00D-06.
 Requested convergence on             energy=1.00D-06.
 No special actions if energy rises.
 FoFCou: FMM=F IPFlag=           0 FMFlag=      100000 FMFlg1=           0
         NFxFlg=           0 DoJE=T BraDBF=T KetDBF=F FulRan=T
         Omega=  0.000000  0.000000  1.000000  0.000000  0.000000 ICntrl=     500 IOpCl=  0
         NMat0=    1 NMatS0=    1 NMatT0=    0 NMatD0=    1 NMtDS0=    0 NMtDT0=    0
         I1Cent=           5 NGrid=           0.
 Symmetry not used in FoFCou.
 Error on total polarization charges =  0.00341
 SCF Done:  E(RPBE-PBE) =  -169.714870982     A.U. after    9 cycles
             Convg  =    0.4998D-08             -V/T =  2.0093
 D1PCM: PCM CHGder 1st derivatives, ID1Alg=3 FixD1E=F DoIter=F DoCFld=F I1PDM=0.
 Calling FoFJK, ICntrl=      2527 FMM=F ISym2X=0 I1Cent= 4 IOpClX= 0 NMat=1 NMatS=1 NMatT=0.
 ***** Axes restored to original set *****
 -------------------------------------------------------------------
 Center     Atomic                   Forces (Hartrees/Bohr)
 Number     Number              X              Y              Z
 -------------------------------------------------------------------
      1        6           0.007577669    0.003094103   -0.000130166
      2        7          -0.003905964   -0.000155147    0.000029372
      3        8          -0.003818088   -0.002636910    0.000048672
      4        1           0.000661712   -0.000033617    0.000000745
      5        1          -0.000059812    0.000195726    0.000007283
      6        1          -0.000455518   -0.000464155    0.000044094
 -------------------------------------------------------------------
 Cartesian Forces:  Max     0.007577669 RMS     0.002412148

 GradGradGradGradGradGradGradGradGradGradGradGradGradGradGradGradGradGrad
 Berny optimization.
 Using GEDIIS/GDIIS optimizer.
 Internal  Forces:  Max     0.004633798 RMS     0.001501920
 Search for a local minimum.
 Step number   2 out of a maximum of   25
 All quantities printed in internal units (Hartrees-Bohrs-Radians)
 Mixed Optimization -- RFO/linear search
 Update second derivatives using D2CorX and points    1    2
 DE= -1.05D-03 DEPred=-9.99D-04 R= 1.06D+00
 SS=  1.41D+00  RLast= 5.40D-02 DXNew= 5.0454D-01 1.6207D-01
 Trust test= 1.06D+00 RLast= 5.40D-02 DXMaxT set to 3.00D-01
 The second derivative matrix:
                          R1        R2        R3        R4        R5
           R1           0.55223
           R2           0.05323   0.87250
           R3           0.01451   0.00316   0.33616
           R4           0.01237  -0.00786   0.00372   0.46187
           R5           0.01294  -0.00755   0.00399   0.00164   0.46606
           A1           0.00590   0.00841   0.00355   0.00266   0.00281
           A2          -0.00774  -0.01971  -0.00593  -0.00490  -0.00513
           A3           0.00046  -0.00406  -0.00042  -0.00056  -0.00057
           A4          -0.00053  -0.01943  -0.00306  -0.00326  -0.00337
           A5           0.00086   0.01341   0.00230   0.00236   0.00244
           A6          -0.00032   0.00602   0.00076   0.00090   0.00093
           D1          -0.00019  -0.00085  -0.00020  -0.00018  -0.00019
           D2          -0.00022  -0.00097  -0.00023  -0.00021  -0.00022
           D3           0.00020   0.00087   0.00021   0.00019   0.00019
           D4           0.00017   0.00075   0.00018   0.00016   0.00017
                          A1        A2        A3        A4        A5
           A1           0.25169
           A2          -0.00252   0.16345
           A3          -0.00003  -0.00012   0.15991
           A4          -0.00080   0.00052  -0.00035   0.15892
           A5           0.00067  -0.00056   0.00023   0.00064   0.15964
           A6           0.00013   0.00004   0.00013   0.00044  -0.00028
           D1          -0.00008   0.00009  -0.00001  -0.00001   0.00000
           D2          -0.00009   0.00011  -0.00001  -0.00001   0.00000
           D3           0.00008  -0.00010   0.00001   0.00001   0.00000
           D4           0.00007  -0.00008   0.00001   0.00001   0.00000
                          A6        D1        D2        D3        D4
           A6           0.15983
           D1           0.00001   0.02258
           D2           0.00001   0.00000   0.02258
           D3          -0.00001   0.00000   0.00000   0.02258
           D4          -0.00001   0.00000   0.00000   0.00000   0.02258
 Use linear search instead of GDIIS.
     Eigenvalues ---    0.02258   0.02258   0.02258   0.15731   0.16000
     Eigenvalues ---    0.16140   0.22247   0.33539   0.45976   0.46383
     Eigenvalues ---    0.54941   0.882791000.000001000.000001000.00000
 RFO step:  Lambda=-5.27337906D-05 EMin= 2.25806283D-02
 Quartic linear search produced a step of  0.08647.
 Iteration  1 RMS(Cart)=  0.00277034 RMS(Int)=  0.00000743
 Iteration  2 RMS(Cart)=  0.00000898 RMS(Int)=  0.00000117
 Iteration  3 RMS(Cart)=  0.00000000 RMS(Int)=  0.00000117
 Variable       Old X    -DE/DX   Delta X   Delta X   Delta X     New X
                                 (Linear)    (Quad)   (Total)
    R1        2.57126  -0.00303   0.00057  -0.00650  -0.00593   2.56533
    R2        2.32791   0.00463   0.00338   0.00285   0.00623   2.33414
    R3        2.11197  -0.00049   0.00185  -0.00268  -0.00083   2.11114
    R4        1.92318   0.00010   0.00132  -0.00059   0.00074   1.92391
    R5        1.91933   0.00007   0.00136  -0.00068   0.00068   1.92001
    A1        2.18819  -0.00081   0.00076  -0.00439  -0.00363   2.18456
    A2        1.94665   0.00088  -0.00109   0.00573   0.00464   1.95129
    A3        2.14834  -0.00007   0.00034  -0.00134  -0.00101   2.14734
    A4        2.08581   0.00098   0.00087   0.00626   0.00714   2.09294
    A5        2.12166  -0.00069  -0.00047  -0.00445  -0.00492   2.11675
    A6        2.07571  -0.00030  -0.00040  -0.00181  -0.00222   2.07350
    D1       -0.00084   0.00004  -0.00006   0.00210   0.00204   0.00120
    D2        3.14133   0.00005  -0.00008   0.00240   0.00232  -3.13954
    D3       -3.14129  -0.00005   0.00007  -0.00216  -0.00210   3.13980
    D4        0.00088  -0.00004   0.00005  -0.00187  -0.00181  -0.00094
         Item               Value     Threshold  Converged?
 Maximum Force            0.004634     0.000015     NO 
 RMS     Force            0.001502     0.000010     NO 
 Maximum Displacement     0.005463     0.000060     NO 
 RMS     Displacement     0.002770     0.000040     NO 
 Predicted change in Energy=-3.255516D-05
 GradGradGradGradGradGradGradGradGradGradGradGradGradGradGradGradGradGrad

                          Input orientation:                          
 ---------------------------------------------------------------------
 Center     Atomic      Atomic             Coordinates (Angstroms)
 Number     Number       Type             X           Y           Z
 ---------------------------------------------------------------------
      1          6           0       -0.153988    0.389482   -0.000890
      2          7           0        1.086536   -0.161826   -0.000238
      3          8           0       -1.214143   -0.244331    0.000355
      4          1           0        1.192173   -1.174422    0.000337
      5          1           0        1.921265    0.417426    0.000436
      6          1           0       -0.111873    1.505854    0.000386
 ---------------------------------------------------------------------
                    Distance matrix (angstroms):
                    1          2          3          4          5
     1  C    0.000000
     2  N    1.357512   0.000000
     3  O    1.235172   2.302158   0.000000
     4  H    2.063478   1.018091   2.579811   0.000000
     5  H    2.075441   1.016024   3.204482   1.750873   0.000000
     6  H    1.117167   2.053616   2.068368   2.980673   2.306149
                    6
     6  H    0.000000
 Stoichiometry    CH3NO
 Framework group  C1[X(CH3NO)]
 Deg. of freedom    12
 Full point group                 C1      NOp   1
 Largest Abelian subgroup         C1      NOp   1
 Largest concise Abelian subgroup C1      NOp   1
                         Standard orientation:                         
 ---------------------------------------------------------------------
 Center     Atomic      Atomic             Coordinates (Angstroms)
 Number     Number       Type             X           Y           Z
 ---------------------------------------------------------------------
      1          6           0       -0.152435    0.389674   -0.000630
      2          7           0        1.087646   -0.162627   -0.000038
      3          8           0       -1.213099   -0.243289    0.000229
      4          1           0        1.192471   -1.175308    0.000150
      5          1           0        1.922838    0.415955    0.000972
      6          1           0       -0.109426    1.506011    0.001093
 ---------------------------------------------------------------------
 Rotational constants (GHZ):     72.5461780     11.1389074      9.6562652
 Standard basis: 6-31G(d,p) (6D, 7F)
 There are    60 symmetry adapted basis functions of A   symmetry.
 Integral buffers will be    131072 words long.
 Raffenetti 2 integral format.
 Two-electron integral symmetry is turned on.
    60 basis functions,   105 primitive gaussians,    60 cartesian basis functions
    12 alpha electrons       12 beta electrons
       nuclear repulsion energy        70.5254050456 Hartrees.
 NAtoms=    6 NActive=    6 NUniq=    6 SFac= 7.50D-01 NAtFMM=   80 NAOKFM=F Big=F
 Standard density basis: Auto (5D, 7F)
   276 Density fitting functions
 There are   276 symmetry adapted density basis functions of A   symmetry.
 ------------------------------------------------------------------------------
 Polarizable Continuum Model (PCM)
 =================================
 Model                : PCM.
 Atomic radii         : UFF (Universal Force Field).
 Polarization charges : Total charges.
 Charge compensation  : None.
 Solution method      : Matrix inversion.
 Cavity type          : Scaled VdW (van der Waals Surface) (Alpha=1.100).
 Cavity algorithm     : GePol (No added spheres)
                        Default sphere list used, NSphG=    6.
                        Lebedev-Laikov grids with approx.  5.0 points / Ang**2.
                        Smoothing algorithm: Karplus/York (Gamma=1.0000).
                        Polarization charges: spherical gaussians, with
                                              point-specific exponents (IZeta= 3).
                        Self-potential: point-specific (ISelfS= 7).
                        Self-field    : sphere-specific E.n sum rule (ISelfD= 2).
 1st derivatives      : Analytical E(r).r(x)/FMM algorithm (CHGder, D1EAlg=3).
                        Cavity 1st derivative terms included.
 Solvent              : Water, Eps=  78.355300 Eps(inf)=   1.777849
 ------------------------------------------------------------------------------
 Spheres list:
 ISph  on   Nord    Re0     Alpha      Xe            Ye            Ze
    1   C      1    1.926   1.100     -0.152435      0.389674     -0.000630
    2   N      2    1.830   1.100      1.087646     -0.162627     -0.000038
    3   O      3    1.750   1.100     -1.213099     -0.243289      0.000229
    4   H      4    1.443   1.100      1.192471     -1.175308      0.000150
    5   H      5    1.443   1.100      1.922838      0.415955      0.000972
    6   H      6    1.443   1.100     -0.109426      1.506011      0.001093
 ------------------------------------------------------------------------------
 One-electron integrals computed using PRISM.
 NBasis=    60 RedAO= T  NBF=    60
 NBsUse=    60 1.00D-06 NBFU=    60
 NBasis=       60 NBas6D=       60 NTT=        1830   NTT6D=     1830
 NDBShl=       48 NDBF=        276 NDBF6D=      318  NNucDB=        0
 IDenFi=        2 ISolve=        0 FullAP=F BlkAPC=T NucTyp=        0
 TolInv= 1.00D-05 TolIt=  1.00D-10 IR12=0.
 Petite list used in FoFDir.
 MinBra= 0 MaxBra= 3 Meth= 1.
 IRaf=       0 NMat=   1 IRICut=       1 DoRegI=T DoRafI=F ISym2E= 1 JSym2E=1.
  NDBF=   276  NBFD=   276
 NRank=   276 NBFDU=   276
 S*AI*S=  5.04660572123    
 Initial guess read from the read-write file.
 B after Tr=     0.000000    0.000000    0.000000
         Rot=    1.000000    0.000000    0.000000    0.000000 Ang=   0.00 deg.
 Initial guess orbital symmetries:
       Occupied  (A) (A) (A) (A) (A) (A) (A) (A) (A) (A) (A) (A)
       Virtual   (A) (A) (A) (A) (A) (A) (A) (A) (A) (A) (A) (A)
                 (A) (A) (A) (A) (A) (A) (A) (A) (A) (A) (A) (A)
                 (A) (A) (A) (A) (A) (A) (A) (A) (A) (A) (A) (A)
                 (A) (A) (A) (A) (A) (A) (A) (A) (A) (A) (A) (A)
 Requested convergence on RMS density matrix=1.00D-08 within 128 cycles.
 Requested convergence on MAX density matrix=1.00D-06.
 Requested convergence on             energy=1.00D-06.
 No special actions if energy rises.
 FoFCou: FMM=F IPFlag=           0 FMFlag=      100000 FMFlg1=           0
         NFxFlg=           0 DoJE=T BraDBF=T KetDBF=F FulRan=T
         Omega=  0.000000  0.000000  1.000000  0.000000  0.000000 ICntrl=     500 IOpCl=  0
         NMat0=    1 NMatS0=    1 NMatT0=    0 NMatD0=    1 NMtDS0=    0 NMtDT0=    0
         I1Cent=           5 NGrid=           0.
 Symmetry not used in FoFCou.
 Error on total polarization charges =  0.00340
 SCF Done:  E(RPBE-PBE) =  -169.714908329     A.U. after    9 cycles
             Convg  =    0.1395D-08             -V/T =  2.0094
 D1PCM: PCM CHGder 1st derivatives, ID1Alg=3 FixD1E=F DoIter=F DoCFld=F I1PDM=0.
 Calling FoFJK, ICntrl=      2527 FMM=F ISym2X=0 I1Cent= 4 IOpClX= 0 NMat=1 NMatS=1 NMatT=0.
 ***** Axes restored to original set *****
 -------------------------------------------------------------------
 Center     Atomic                   Forces (Hartrees/Bohr)
 Number     Number              X              Y              Z
 -------------------------------------------------------------------
      1        6           0.001683770    0.000265588    0.000367510
      2        7          -0.000782681    0.000116930   -0.000075285
      3        8          -0.000716207   -0.000113009   -0.000141865
      4        1           0.000080903    0.000332214   -0.000004335
      5        1          -0.000023771   -0.000131371   -0.000022781
      6        1          -0.000242014   -0.000470352   -0.000123243
 -------------------------------------------------------------------
 Cartesian Forces:  Max     0.001683770 RMS     0.000508195

 GradGradGradGradGradGradGradGradGradGradGradGradGradGradGradGradGradGrad
 Berny optimization.
 Using GEDIIS/GDIIS optimizer.
 Internal  Forces:  Max     0.000791989 RMS     0.000340268
 Search for a local minimum.
 Step number   3 out of a maximum of   25
 All quantities printed in internal units (Hartrees-Bohrs-Radians)
 Mixed Optimization -- En-DIIS/RFO-DIIS
 Update second derivatives using D2CorX and points    1    2    3
 DE= -3.73D-05 DEPred=-3.26D-05 R= 1.15D+00
 SS=  1.41D+00  RLast= 1.44D-02 DXNew= 5.0454D-01 4.3326D-02
 Trust test= 1.15D+00 RLast= 1.44D-02 DXMaxT set to 3.00D-01
 The second derivative matrix:
                          R1        R2        R3        R4        R5
           R1           0.50940
           R2           0.11723   0.80709
           R3          -0.00003   0.03696   0.33674
           R4           0.00576   0.01453   0.00716   0.46672
           R5           0.01400  -0.00407   0.00637   0.00390   0.46688
           A1           0.00501  -0.00129  -0.00220  -0.00309   0.00099
           A2          -0.00584  -0.01601  -0.00198  -0.00120  -0.00409
           A3          -0.01684   0.03548   0.00042   0.00368   0.00215
           A4           0.01050  -0.03099   0.00293   0.00076  -0.00282
           A5          -0.00322   0.01286  -0.00223  -0.00152   0.00143
           A6          -0.00729   0.01814  -0.00070   0.00076   0.00139
           D1          -0.00412   0.00931   0.00056   0.00137   0.00063
           D2          -0.00487   0.01101   0.00066   0.00162   0.00074
           D3           0.00435  -0.00984  -0.00059  -0.00145  -0.00066
           D4           0.00361  -0.00814  -0.00050  -0.00121  -0.00055
                          A1        A2        A3        A4        A5
           A1           0.25729
           A2          -0.00593   0.16548
           A3          -0.00728   0.00487   0.16136
           A4          -0.00279   0.00137   0.00683   0.15699
           A5           0.00377  -0.00232  -0.00533   0.00040   0.16108
           A6          -0.00098   0.00095  -0.00150   0.00261  -0.00148
           D1          -0.00231   0.00159   0.00104   0.00186  -0.00160
           D2          -0.00271   0.00186   0.00122   0.00219  -0.00188
           D3           0.00243  -0.00167  -0.00109  -0.00196   0.00168
           D4           0.00203  -0.00139  -0.00092  -0.00163   0.00140
                          A6        D1        D2        D3        D4
           A6           0.15887
           D1          -0.00026   0.02305
           D2          -0.00031   0.00055   0.02322
           D3           0.00028  -0.00049  -0.00057   0.02310
           D4           0.00023  -0.00041  -0.00048   0.00043   0.02294
 Use linear search instead of GDIIS.
     Eigenvalues ---    0.02258   0.02258   0.02332   0.14546   0.16036
     Eigenvalues ---    0.16256   0.23666   0.33298   0.45585   0.46716
     Eigenvalues ---    0.48500   0.853971000.000001000.000001000.00000
 RFO step:  Lambda=-7.52224632D-06 EMin= 2.25805592D-02
 Quartic linear search produced a step of  0.15665.
 Iteration  1 RMS(Cart)=  0.00241486 RMS(Int)=  0.00001473
 Iteration  2 RMS(Cart)=  0.00001113 RMS(Int)=  0.00001092
 Iteration  3 RMS(Cart)=  0.00000000 RMS(Int)=  0.00001092
 Variable       Old X    -DE/DX   Delta X   Delta X   Delta X     New X
                                 (Linear)    (Quad)   (Total)
    R1        2.56533  -0.00079  -0.00093  -0.00137  -0.00230   2.56302
    R2        2.33414   0.00068   0.00098   0.00082   0.00180   2.33593
    R3        2.11114  -0.00048  -0.00013  -0.00145  -0.00158   2.10956
    R4        1.92391  -0.00033   0.00012  -0.00071  -0.00060   1.92332
    R5        1.92001  -0.00009   0.00011  -0.00012  -0.00001   1.92000
    A1        2.18456   0.00024  -0.00057   0.00152   0.00093   2.18548
    A2        1.95129   0.00013   0.00073   0.00081   0.00151   1.95280
    A3        2.14734  -0.00037  -0.00016  -0.00229  -0.00247   2.14486
    A4        2.09294   0.00010   0.00112   0.00053   0.00165   2.09459
    A5        2.11675   0.00003  -0.00077   0.00038  -0.00039   2.11636
    A6        2.07350  -0.00013  -0.00035  -0.00091  -0.00126   2.07224
    D1        0.00120  -0.00012   0.00032  -0.00646  -0.00614  -0.00494
    D2       -3.13954  -0.00015   0.00036  -0.00761  -0.00724   3.13640
    D3        3.13980   0.00013  -0.00033   0.00681   0.00648  -3.13691
    D4       -0.00094   0.00011  -0.00028   0.00566   0.00538   0.00444
         Item               Value     Threshold  Converged?
 Maximum Force            0.000792     0.000015     NO 
 RMS     Force            0.000340     0.000010     NO 
 Maximum Displacement     0.007043     0.000060     NO 
 RMS     Displacement     0.002416     0.000040     NO 
 Predicted change in Energy=-4.463723D-06
 GradGradGradGradGradGradGradGradGradGradGradGradGradGradGradGradGradGrad

                          Input orientation:                          
 ---------------------------------------------------------------------
 Center     Atomic      Atomic             Coordinates (Angstroms)
 Number     Number       Type             X           Y           Z
 ---------------------------------------------------------------------
      1          6           0       -0.153030    0.389400    0.002837
      2          7           0        1.086146   -0.161936    0.000593
      3          8           0       -1.214857   -0.243455   -0.001177
      4          1           0        1.192989   -1.174088   -0.000425
      5          1           0        1.920890    0.417284   -0.000318
      6          1           0       -0.112168    1.504977   -0.001122
 ---------------------------------------------------------------------
                    Distance matrix (angstroms):
                    1          2          3          4          5
     1  C    0.000000
     2  N    1.356294   0.000000
     3  O    1.236122   2.302447   0.000000
     4  H    2.063074   1.017776   2.581434   0.000000
     5  H    2.074110   1.016019   3.204604   1.749944   0.000000
     6  H    1.116332   2.052940   2.067109   2.980072   2.305733
                    6
     6  H    0.000000
 Stoichiometry    CH3NO
 Framework group  C1[X(CH3NO)]
 Deg. of freedom    12
 Full point group                 C1      NOp   1
 Largest Abelian subgroup         C1      NOp   1
 Largest concise Abelian subgroup C1      NOp   1
                         Standard orientation:                         
 ---------------------------------------------------------------------
 Center     Atomic      Atomic             Coordinates (Angstroms)
 Number     Number       Type             X           Y           Z
 ---------------------------------------------------------------------
      1          6           0        0.151499    0.389334   -0.001999
      2          7           0       -1.087415   -0.162592    0.000141
      3          8           0        1.213627   -0.243023    0.000684
      4          1           0       -1.193779   -1.174795   -0.000089
      5          1           0       -1.922433    0.416231    0.002204
      6          1           0        0.110111    1.504886    0.003414
 ---------------------------------------------------------------------
 Rotational constants (GHZ):     72.6482458     11.1359987      9.6559063
 Standard basis: 6-31G(d,p) (6D, 7F)
 There are    60 symmetry adapted basis functions of A   symmetry.
 Integral buffers will be    131072 words long.
 Raffenetti 2 integral format.
 Two-electron integral symmetry is turned on.
    60 basis functions,   105 primitive gaussians,    60 cartesian basis functions
    12 alpha electrons       12 beta electrons
       nuclear repulsion energy        70.5282350855 Hartrees.
 NAtoms=    6 NActive=    6 NUniq=    6 SFac= 7.50D-01 NAtFMM=   80 NAOKFM=F Big=F
 Standard density basis: Auto (5D, 7F)
   276 Density fitting functions
 There are   276 symmetry adapted density basis functions of A   symmetry.
 ------------------------------------------------------------------------------
 Polarizable Continuum Model (PCM)
 =================================
 Model                : PCM.
 Atomic radii         : UFF (Universal Force Field).
 Polarization charges : Total charges.
 Charge compensation  : None.
 Solution method      : Matrix inversion.
 Cavity type          : Scaled VdW (van der Waals Surface) (Alpha=1.100).
 Cavity algorithm     : GePol (No added spheres)
                        Default sphere list used, NSphG=    6.
                        Lebedev-Laikov grids with approx.  5.0 points / Ang**2.
                        Smoothing algorithm: Karplus/York (Gamma=1.0000).
                        Polarization charges: spherical gaussians, with
                                              point-specific exponents (IZeta= 3).
                        Self-potential: point-specific (ISelfS= 7).
                        Self-field    : sphere-specific E.n sum rule (ISelfD= 2).
 1st derivatives      : Analytical E(r).r(x)/FMM algorithm (CHGder, D1EAlg=3).
                        Cavity 1st derivative terms included.
 Solvent              : Water, Eps=  78.355300 Eps(inf)=   1.777849
 ------------------------------------------------------------------------------
 Spheres list:
 ISph  on   Nord    Re0     Alpha      Xe            Ye            Ze
    1   C      1    1.925   1.100      0.151499      0.389334     -0.001999
    2   N      2    1.830   1.100     -1.087415     -0.162592      0.000141
    3   O      3    1.750   1.100      1.213627     -0.243023      0.000684
    4   H      4    1.443   1.100     -1.193779     -1.174795     -0.000089
    5   H      5    1.443   1.100     -1.922433      0.416231      0.002204
    6   H      6    1.443   1.100      0.110111      1.504886      0.003414
 ------------------------------------------------------------------------------
 One-electron integrals computed using PRISM.
 NBasis=    60 RedAO= T  NBF=    60
 NBsUse=    60 1.00D-06 NBFU=    60
 NBasis=       60 NBas6D=       60 NTT=        1830   NTT6D=     1830
 NDBShl=       48 NDBF=        276 NDBF6D=      318  NNucDB=        0
 IDenFi=        2 ISolve=        0 FullAP=F BlkAPC=T NucTyp=        0
 TolInv= 1.00D-05 TolIt=  1.00D-10 IR12=0.
 Petite list used in FoFDir.
 MinBra= 0 MaxBra= 3 Meth= 1.
 IRaf=       0 NMat=   1 IRICut=       1 DoRegI=T DoRafI=F ISym2E= 1 JSym2E=1.
  NDBF=   276  NBFD=   276
 NRank=   276 NBFDU=   276
 S*AI*S=  5.04649317576    
 Initial guess read from the read-write file.
 B after Tr=     0.000000    0.000000    0.000000
         Rot=    1.000000    0.000000    0.000000    0.000000 Ang=   0.00 deg.
 Initial guess orbital symmetries:
       Occupied  (A) (A) (A) (A) (A) (A) (A) (A) (A) (A) (A) (A)
       Virtual   (A) (A) (A) (A) (A) (A) (A) (A) (A) (A) (A) (A)
                 (A) (A) (A) (A) (A) (A) (A) (A) (A) (A) (A) (A)
                 (A) (A) (A) (A) (A) (A) (A) (A) (A) (A) (A) (A)
                 (A) (A) (A) (A) (A) (A) (A) (A) (A) (A) (A) (A)
 Requested convergence on RMS density matrix=1.00D-08 within 128 cycles.
 Requested convergence on MAX density matrix=1.00D-06.
 Requested convergence on             energy=1.00D-06.
 No special actions if energy rises.
 FoFCou: FMM=F IPFlag=           0 FMFlag=      100000 FMFlg1=           0
         NFxFlg=           0 DoJE=T BraDBF=T KetDBF=F FulRan=T
         Omega=  0.000000  0.000000  1.000000  0.000000  0.000000 ICntrl=     500 IOpCl=  0
         NMat0=    1 NMatS0=    1 NMatT0=    0 NMatD0=    1 NMtDS0=    0 NMtDT0=    0
         I1Cent=           5 NGrid=           0.
 Symmetry not used in FoFCou.
 Error on total polarization charges =  0.00340
 SCF Done:  E(RPBE-PBE) =  -169.714907308     A.U. after   13 cycles
             Convg  =    0.5786D-08             -V/T =  2.0093
 D1PCM: PCM CHGder 1st derivatives, ID1Alg=3 FixD1E=F DoIter=F DoCFld=F I1PDM=0.
 Calling FoFJK, ICntrl=      2527 FMM=F ISym2X=0 I1Cent= 4 IOpClX= 0 NMat=1 NMatS=1 NMatT=0.
 ***** Axes restored to original set *****
 -------------------------------------------------------------------
 Center     Atomic                   Forces (Hartrees/Bohr)
 Number     Number              X              Y              Z
 -------------------------------------------------------------------
      1        6          -0.000345948   -0.000208285   -0.001157824
      2        7           0.000093448    0.000057973    0.000243377
      3        8           0.000319749    0.000240507    0.000448423
      4        1          -0.000022166    0.000041561    0.000010835
      5        1          -0.000019546   -0.000090976    0.000068690
      6        1          -0.000025537   -0.000040780    0.000386499
 -------------------------------------------------------------------
 Cartesian Forces:  Max     0.001157824 RMS     0.000341851

 GradGradGradGradGradGradGradGradGradGradGradGradGradGradGradGradGradGrad
 Berny optimization.
 Using GEDIIS/GDIIS optimizer.
 Internal  Forces:  Max     0.000459100 RMS     0.000235816
 Search for a local minimum.
 Step number   4 out of a maximum of   25
 All quantities printed in internal units (Hartrees-Bohrs-Radians)
 Mixed Optimization -- En-DIIS/RFO-DIIS
 Swaping is turned off.
 Update second derivatives using D2CorX and points    1    2    3    4
 DE=  1.02D-06 DEPred=-4.46D-06 R=-2.29D-01
 Trust test=-2.29D-01 RLast= 1.36D-02 DXMaxT set to 1.50D-01
 The second derivative matrix:
                          R1        R2        R3        R4        R5
           R1           0.46598
           R2           0.16536   0.67755
           R3          -0.02119   0.04306   0.32420
           R4          -0.00642   0.00862  -0.00146   0.46013
           R5           0.01109  -0.01259   0.00224   0.00003   0.46489
           A1           0.01675  -0.01240   0.00134  -0.00179   0.00202
           A2           0.00548  -0.04348   0.00222   0.00048  -0.00583
           A3          -0.03235   0.03255  -0.00809  -0.00206  -0.00214
           A4           0.01826  -0.04614   0.00590   0.00194  -0.00331
           A5          -0.00197   0.01773  -0.00162  -0.00092   0.00245
           A6          -0.01628   0.02841  -0.00428  -0.00101   0.00086
           D1           0.00973  -0.02251   0.00355   0.00174  -0.00149
           D2           0.01121  -0.02606   0.00410   0.00202  -0.00174
           D3          -0.01005   0.02336  -0.00368  -0.00181   0.00156
           D4          -0.00858   0.01982  -0.00312  -0.00153   0.00131
                          A1        A2        A3        A4        A5
           A1           0.25890
           A2          -0.01055   0.16383
           A3          -0.00756   0.01005   0.15841
           A4          -0.00586  -0.00125   0.00925   0.15533
           A5           0.00590  -0.00246  -0.00593   0.00010   0.16195
           A6          -0.00003   0.00371  -0.00332   0.00457  -0.00205
           D1          -0.00157   0.00039   0.00395  -0.00252   0.00158
           D2          -0.00185   0.00050   0.00460  -0.00290   0.00182
           D3           0.00166  -0.00044  -0.00412   0.00260  -0.00163
           D4           0.00138  -0.00034  -0.00348   0.00222  -0.00139
                          A6        D1        D2        D3        D4
           A6           0.15748
           D1           0.00095   0.03384
           D2           0.00108   0.01315   0.03793
           D3          -0.00097  -0.01178  -0.01375   0.03490
           D4          -0.00083  -0.00989  -0.01155   0.01034   0.03127
     Eigenvalues ---    0.02258   0.02258   0.05612   0.12345   0.16007
     Eigenvalues ---    0.16267   0.24103   0.31321   0.40883   0.46082
     Eigenvalues ---    0.46869   0.775651000.000001000.000001000.00000
 En-DIIS/RFO-DIIS IScMMF=        0 using points:     4    3
 RFO step:  Lambda=-2.67537838D-06.
 DIIS coeffs:      0.45102      0.54898
 Iteration  1 RMS(Cart)=  0.00220132 RMS(Int)=  0.00001013
 Iteration  2 RMS(Cart)=  0.00000998 RMS(Int)=  0.00000453
 Iteration  3 RMS(Cart)=  0.00000000 RMS(Int)=  0.00000453
 Variable       Old X    -DE/DX   Delta X   Delta X   Delta X     New X
                                  (DIIS)     (GDIIS)  (Total)
    R1        2.56302   0.00004   0.00126  -0.00213  -0.00086   2.56216
    R2        2.33593  -0.00040  -0.00099   0.00167   0.00069   2.33662
    R3        2.10956  -0.00005   0.00087  -0.00149  -0.00063   2.10894
    R4        1.92332  -0.00005   0.00033  -0.00056  -0.00023   1.92308
    R5        1.92000  -0.00006   0.00001  -0.00001  -0.00001   1.91999
    A1        2.18548   0.00003  -0.00051   0.00103   0.00051   2.18599
    A2        1.95280   0.00002  -0.00083   0.00149   0.00065   1.95345
    A3        2.14486  -0.00005   0.00136  -0.00247  -0.00112   2.14374
    A4        2.09459  -0.00005  -0.00090   0.00146   0.00056   2.09515
    A5        2.11636   0.00008   0.00021  -0.00015   0.00006   2.11642
    A6        2.07224  -0.00003   0.00069  -0.00132  -0.00062   2.07161
    D1       -0.00494   0.00039   0.00337   0.00273   0.00610   0.00115
    D2        3.13640   0.00046   0.00398   0.00310   0.00707  -3.13971
    D3       -3.13691  -0.00041  -0.00356  -0.00278  -0.00634   3.13994
    D4        0.00444  -0.00035  -0.00295  -0.00241  -0.00536  -0.00092
         Item               Value     Threshold  Converged?
 Maximum Force            0.000459     0.000015     NO 
 RMS     Force            0.000236     0.000010     NO 
 Maximum Displacement     0.006924     0.000060     NO 
 RMS     Displacement     0.002201     0.000040     NO 
 Predicted change in Energy=-4.962795D-06
 GradGradGradGradGradGradGradGradGradGradGradGradGradGradGradGradGradGrad

                          Input orientation:                          
 ---------------------------------------------------------------------
 Center     Atomic      Atomic             Coordinates (Angstroms)
 Number     Number       Type             X           Y           Z
 ---------------------------------------------------------------------
      1          6           0       -0.152665    0.389344   -0.000827
      2          7           0        1.086037   -0.161940   -0.000196
      3          8           0       -1.215195   -0.243054    0.000322
      4          1           0        1.193327   -1.173920    0.000317
      5          1           0        1.920877    0.417135    0.000411
      6          1           0       -0.112411    1.504618    0.000360
 ---------------------------------------------------------------------
                    Distance matrix (angstroms):
                    1          2          3          4          5
     1  C    0.000000
     2  N    1.355838   0.000000
     3  O    1.236486   2.302661   0.000000
     4  H    2.062884   1.017652   2.582148   0.000000
     5  H    2.073729   1.016015   3.204808   1.749510   0.000000
     6  H    1.116001   2.052728   2.066516   2.979852   2.305836
                    6
     6  H    0.000000
 Stoichiometry    CH3NO
 Framework group  C1[X(CH3NO)]
 Deg. of freedom    12
 Full point group                 C1      NOp   1
 Largest Abelian subgroup         C1      NOp   1
 Largest concise Abelian subgroup C1      NOp   1
                         Standard orientation:                         
 ---------------------------------------------------------------------
 Center     Atomic      Atomic             Coordinates (Angstroms)
 Number     Number       Type             X           Y           Z
 ---------------------------------------------------------------------
      1          6           0       -0.151145    0.389147   -0.000588
      2          7           0        1.087381   -0.162533   -0.000028
      3          8           0       -1.213877   -0.242911    0.000212
      4          1           0        1.194347   -1.174547    0.000123
      5          1           0        1.922406    0.416274    0.000885
      6          1           0       -0.110534    1.504408    0.001017
 ---------------------------------------------------------------------
 Rotational constants (GHZ):     72.7001694     11.1338695      9.6551997
 Standard basis: 6-31G(d,p) (6D, 7F)
 There are    60 symmetry adapted basis functions of A   symmetry.
 Integral buffers will be    131072 words long.
 Raffenetti 2 integral format.
 Two-electron integral symmetry is turned on.
    60 basis functions,   105 primitive gaussians,    60 cartesian basis functions
    12 alpha electrons       12 beta electrons
       nuclear repulsion energy        70.5285574511 Hartrees.
 NAtoms=    6 NActive=    6 NUniq=    6 SFac= 7.50D-01 NAtFMM=   80 NAOKFM=F Big=F
 Standard density basis: Auto (5D, 7F)
   276 Density fitting functions
 There are   276 symmetry adapted density basis functions of A   symmetry.
 ------------------------------------------------------------------------------
 Polarizable Continuum Model (PCM)
 =================================
 Model                : PCM.
 Atomic radii         : UFF (Universal Force Field).
 Polarization charges : Total charges.
 Charge compensation  : None.
 Solution method      : Matrix inversion.
 Cavity type          : Scaled VdW (van der Waals Surface) (Alpha=1.100).
 Cavity algorithm     : GePol (No added spheres)
                        Default sphere list used, NSphG=    6.
                        Lebedev-Laikov grids with approx.  5.0 points / Ang**2.
                        Smoothing algorithm: Karplus/York (Gamma=1.0000).
                        Polarization charges: spherical gaussians, with
                                              point-specific exponents (IZeta= 3).
                        Self-potential: point-specific (ISelfS= 7).
                        Self-field    : sphere-specific E.n sum rule (ISelfD= 2).
 1st derivatives      : Analytical E(r).r(x)/FMM algorithm (CHGder, D1EAlg=3).
                        Cavity 1st derivative terms included.
 Solvent              : Water, Eps=  78.355300 Eps(inf)=   1.777849
 ------------------------------------------------------------------------------
 Spheres list:
 ISph  on   Nord    Re0     Alpha      Xe            Ye            Ze
    1   C      1    1.925   1.100     -0.151145      0.389147     -0.000588
    2   N      2    1.830   1.100      1.087381     -0.162533     -0.000028
    3   O      3    1.750   1.100     -1.213877     -0.242911      0.000212
    4   H      4    1.443   1.100      1.194347     -1.174547      0.000123
    5   H      5    1.443   1.100      1.922406      0.416274      0.000885
    6   H      6    1.443   1.100     -0.110534      1.504408      0.001017
 ------------------------------------------------------------------------------
 One-electron integrals computed using PRISM.
 NBasis=    60 RedAO= T  NBF=    60
 NBsUse=    60 1.00D-06 NBFU=    60
 NBasis=       60 NBas6D=       60 NTT=        1830   NTT6D=     1830
 NDBShl=       48 NDBF=        276 NDBF6D=      318  NNucDB=        0
 IDenFi=        2 ISolve=        0 FullAP=F BlkAPC=T NucTyp=        0
 TolInv= 1.00D-05 TolIt=  1.00D-10 IR12=0.
 Petite list used in FoFDir.
 MinBra= 0 MaxBra= 3 Meth= 1.
 IRaf=       0 NMat=   1 IRICut=       1 DoRegI=T DoRafI=F ISym2E= 1 JSym2E=1.
  NDBF=   276  NBFD=   276
 NRank=   276 NBFDU=   276
 S*AI*S=  5.04648006128    
 Initial guess read from the read-write file.
 B after Tr=     0.000000    0.000000    0.000000
         Rot=    1.000000    0.000000    0.000000    0.000000 Ang=   0.00 deg.
 Initial guess orbital symmetries:
       Occupied  (A) (A) (A) (A) (A) (A) (A) (A) (A) (A) (A) (A)
       Virtual   (A) (A) (A) (A) (A) (A) (A) (A) (A) (A) (A) (A)
                 (A) (A) (A) (A) (A) (A) (A) (A) (A) (A) (A) (A)
                 (A) (A) (A) (A) (A) (A) (A) (A) (A) (A) (A) (A)
                 (A) (A) (A) (A) (A) (A) (A) (A) (A) (A) (A) (A)
 Requested convergence on RMS density matrix=1.00D-08 within 128 cycles.
 Requested convergence on MAX density matrix=1.00D-06.
 Requested convergence on             energy=1.00D-06.
 No special actions if energy rises.
 FoFCou: FMM=F IPFlag=           0 FMFlag=      100000 FMFlg1=           0
         NFxFlg=           0 DoJE=T BraDBF=T KetDBF=F FulRan=T
         Omega=  0.000000  0.000000  1.000000  0.000000  0.000000 ICntrl=     500 IOpCl=  0
         NMat0=    1 NMatS0=    1 NMatT0=    0 NMatD0=    1 NMtDS0=    0 NMtDT0=    0
         I1Cent=           5 NGrid=           0.
 Symmetry not used in FoFCou.
 Error on total polarization charges =  0.00340
 SCF Done:  E(RPBE-PBE) =  -169.714910147     A.U. after   13 cycles
             Convg  =    0.5818D-08             -V/T =  2.0093
 D1PCM: PCM CHGder 1st derivatives, ID1Alg=3 FixD1E=F DoIter=F DoCFld=F I1PDM=0.
 Calling FoFJK, ICntrl=      2527 FMM=F ISym2X=0 I1Cent= 4 IOpClX= 0 NMat=1 NMatS=1 NMatT=0.
 ***** Axes restored to original set *****
 -------------------------------------------------------------------
 Center     Atomic                   Forces (Hartrees/Bohr)
 Number     Number              X              Y              Z
 -------------------------------------------------------------------
      1        6          -0.001128754   -0.000347525    0.000343090
      2        7           0.000409737    0.000004436   -0.000069909
      3        8           0.000737510    0.000348002   -0.000133539
      4        1          -0.000062994   -0.000076512   -0.000003893
      5        1          -0.000030757   -0.000057460   -0.000021241
      6        1           0.000075257    0.000129059   -0.000114508
 -------------------------------------------------------------------
 Cartesian Forces:  Max     0.001128754 RMS     0.000366529

 GradGradGradGradGradGradGradGradGradGradGradGradGradGradGradGradGradGrad
 Berny optimization.
 Using GEDIIS/GDIIS optimizer.
 Internal  Forces:  Max     0.000808252 RMS     0.000243087
 Search for a local minimum.
 Step number   5 out of a maximum of   25
 All quantities printed in internal units (Hartrees-Bohrs-Radians)
 Mixed Optimization -- En-DIIS/RFO-DIIS
 Swaping is turned off.
 Update second derivatives using D2CorX and points    1    2    3    4    5
 DE= -2.84D-06 DEPred=-4.96D-06 R= 5.72D-01
 SS=  1.41D+00  RLast= 1.27D-02 DXNew= 2.5227D-01 3.7989D-02
 Trust test= 5.72D-01 RLast= 1.27D-02 DXMaxT set to 1.50D-01
 The second derivative matrix:
                          R1        R2        R3        R4        R5
           R1           0.49390
           R2           0.09076   0.70710
           R3          -0.01253  -0.01224   0.32135
           R4          -0.00247  -0.03385  -0.00587   0.45492
           R5           0.00503  -0.02628  -0.00524  -0.00638   0.46094
           A1           0.01527   0.01491   0.00373   0.00091   0.00640
           A2           0.00988  -0.03744   0.00675   0.00399  -0.00354
           A3          -0.02061  -0.00578  -0.00475  -0.00090  -0.00580
           A4           0.00956  -0.03873   0.00056  -0.00194  -0.00419
           A5           0.00626   0.01818   0.00411   0.00335   0.00462
           A6          -0.01582   0.02055  -0.00467  -0.00140  -0.00042
           D1           0.00029   0.00114   0.00036   0.00030   0.00022
           D2           0.00003   0.00166   0.00029   0.00028   0.00023
           D3          -0.00005  -0.00146  -0.00027  -0.00026  -0.00021
           D4          -0.00031  -0.00094  -0.00033  -0.00027  -0.00019
                          A1        A2        A3        A4        A5
           A1           0.25891
           A2          -0.01400   0.16126
           A3          -0.00982   0.01235   0.16461
           A4          -0.00394  -0.00081   0.00553   0.15672
           A5           0.00396  -0.00451  -0.00313  -0.00075   0.16191
           A6          -0.00002   0.00532  -0.00240   0.00403  -0.00116
           D1          -0.00004  -0.00001   0.00002   0.00014  -0.00028
           D2          -0.00003   0.00006  -0.00005   0.00023  -0.00036
           D3           0.00002  -0.00005   0.00004  -0.00021   0.00032
           D4           0.00004   0.00002  -0.00003  -0.00011   0.00025
                          A6        D1        D2        D3        D4
           A6           0.15713
           D1           0.00014   0.03706
           D2           0.00012   0.01693   0.04238
           D3          -0.00011  -0.01516  -0.01774   0.03847
           D4          -0.00013  -0.01271  -0.01486   0.01331   0.03374
     Eigenvalues ---    0.02258   0.02258   0.08387   0.13700   0.15726
     Eigenvalues ---    0.16202   0.24418   0.32081   0.43834   0.46277
     Eigenvalues ---    0.47753   0.751601000.000001000.000001000.00000
 En-DIIS/RFO-DIIS IScMMF=        0 using points:     5    4    3
 RFO step:  Lambda=-1.37467288D-06.
 DIIS coeffs:      0.47860      0.22970      0.29170
 Iteration  1 RMS(Cart)=  0.00070783 RMS(Int)=  0.00000196
 Iteration  2 RMS(Cart)=  0.00000067 RMS(Int)=  0.00000185
 Variable       Old X    -DE/DX   Delta X   Delta X   Delta X     New X
                                  (DIIS)     (GDIIS)  (Total)
    R1        2.56216   0.00034   0.00112  -0.00008   0.00104   2.56320
    R2        2.33662  -0.00081  -0.00088  -0.00042  -0.00130   2.33532
    R3        2.10894   0.00013   0.00079  -0.00033   0.00046   2.10939
    R4        1.92308   0.00007   0.00030  -0.00021   0.00009   1.92317
    R5        1.91999  -0.00005   0.00001  -0.00019  -0.00018   1.91981
    A1        2.18599  -0.00010  -0.00054   0.00017  -0.00036   2.18563
    A2        1.95345  -0.00002  -0.00078   0.00023  -0.00055   1.95290
    A3        2.14374   0.00011   0.00131  -0.00039   0.00092   2.14466
    A4        2.09515  -0.00009  -0.00077  -0.00023  -0.00101   2.09414
    A5        2.11642   0.00007   0.00008   0.00042   0.00050   2.11692
    A6        2.07161   0.00003   0.00069  -0.00018   0.00051   2.07212
    D1        0.00115  -0.00012  -0.00139   0.00001  -0.00138  -0.00023
    D2       -3.13971  -0.00014  -0.00157  -0.00004  -0.00161  -3.14132
    D3        3.13994   0.00012   0.00141   0.00003   0.00144   3.14139
    D4       -0.00092   0.00010   0.00123  -0.00001   0.00121   0.00029
         Item               Value     Threshold  Converged?
 Maximum Force            0.000808     0.000015     NO 
 RMS     Force            0.000243     0.000010     NO 
 Maximum Displacement     0.001573     0.000060     NO 
 RMS     Displacement     0.000708     0.000040     NO 
 Predicted change in Energy=-1.243950D-06
 GradGradGradGradGradGradGradGradGradGradGradGradGradGradGradGradGradGrad

                          Input orientation:                          
 ---------------------------------------------------------------------
 Center     Atomic      Atomic             Coordinates (Angstroms)
 Number     Number       Type             X           Y           Z
 ---------------------------------------------------------------------
      1          6           0       -0.153094    0.389367    0.000005
      2          7           0        1.086257   -0.161812   -0.000014
      3          8           0       -1.214633   -0.243346   -0.000019
      4          1           0        1.192801   -1.173916    0.000148
      5          1           0        1.921153    0.417017    0.000243
      6          1           0       -0.112514    1.504873    0.000023
 ---------------------------------------------------------------------
                    Distance matrix (angstroms):
                    1          2          3          4          5
     1  C    0.000000
     2  N    1.356389   0.000000
     3  O    1.235796   2.302335   0.000000
     4  H    2.062836   1.017697   2.581027   0.000000
     5  H    2.074431   1.015920   3.204564   1.749733   0.000000
     6  H    1.116243   2.053020   2.066624   2.979892   2.306346
                    6
     6  H    0.000000
 Stoichiometry    CH3NO
 Framework group  C1[X(CH3NO)]
 Deg. of freedom    12
 Full point group                 C1      NOp   1
 Largest Abelian subgroup         C1      NOp   1
 Largest concise Abelian subgroup C1      NOp   1
                         Standard orientation:                         
 ---------------------------------------------------------------------
 Center     Atomic      Atomic             Coordinates (Angstroms)
 Number     Number       Type             X           Y           Z
 ---------------------------------------------------------------------
      1          6           0       -0.151669    0.389233   -0.000003
      2          7           0        1.087457   -0.162453   -0.000022
      3          8           0       -1.213466   -0.243047   -0.000027
      4          1           0        1.193587   -1.174601    0.000140
      5          1           0        1.922589    0.416034    0.000235
      6          1           0       -0.110632    1.504721    0.000015
 ---------------------------------------------------------------------
 Rotational constants (GHZ):     72.6754276     11.1369884      9.6571061
 Standard basis: 6-31G(d,p) (6D, 7F)
 There are    60 symmetry adapted basis functions of A   symmetry.
 Integral buffers will be    131072 words long.
 Raffenetti 2 integral format.
 Two-electron integral symmetry is turned on.
    60 basis functions,   105 primitive gaussians,    60 cartesian basis functions
    12 alpha electrons       12 beta electrons
       nuclear repulsion energy        70.5346272209 Hartrees.
 NAtoms=    6 NActive=    6 NUniq=    6 SFac= 7.50D-01 NAtFMM=   80 NAOKFM=F Big=F
 Standard density basis: Auto (5D, 7F)
   276 Density fitting functions
 There are   276 symmetry adapted density basis functions of A   symmetry.
 ------------------------------------------------------------------------------
 Polarizable Continuum Model (PCM)
 =================================
 Model                : PCM.
 Atomic radii         : UFF (Universal Force Field).
 Polarization charges : Total charges.
 Charge compensation  : None.
 Solution method      : Matrix inversion.
 Cavity type          : Scaled VdW (van der Waals Surface) (Alpha=1.100).
 Cavity algorithm     : GePol (No added spheres)
                        Default sphere list used, NSphG=    6.
                        Lebedev-Laikov grids with approx.  5.0 points / Ang**2.
                        Smoothing algorithm: Karplus/York (Gamma=1.0000).
                        Polarization charges: spherical gaussians, with
                                              point-specific exponents (IZeta= 3).
[...]
 ZZZY=             -0.0002 XXYY=            -22.1990 XXZZ=            -23.5282 YYZZ=             -9.0369
 XXYZ=              0.0002 YYXZ=              0.0002 ZZXY=              0.2576
 N-N= 7.053380694647D+01 E-N=-5.389023497212D+02  KE= 1.681442746731D+02
  Exact polarizability:  36.207   0.684  26.580   0.001   0.000  11.322
 Approx polarizability:  62.884   4.967  34.420   0.000   0.000  14.873
 D2PCM: PCM CHGder 2nd derivatives, FixD1E=F FixD2E=F DoIter=F DoCFld=F I1PDM=0
 Calling FoFJK, ICntrl=    100527 FMM=F ISym2X=0 I1Cent= 4 IOpClX= 0 NMat=1 NMatS=1 NMatT=0.
 Full mass-weighted force constant matrix:
 Low frequencies ---  -24.8443  -14.1660   -0.0016    0.0004    0.0011   27.7051
 Low frequencies ---  214.6020  547.9822  649.6629
 Diagonal vibrational polarizability:
        7.4603501       2.1085477     170.8174783
 Diagonal vibrational hyperpolarizability:
       27.8831504      -9.7501767       0.3181024
 Harmonic frequencies (cm**-1), IR intensities (KM/Mole), Raman scattering
 activities (A**4/AMU), depolarization ratios for plane and unpolarized
 incident light, reduced masses (AMU), force constants (mDyne/A),
 and normal coordinates:
                     1                      2                      3
                     A                      A                      A
 Frequencies --   214.5124               547.9818               649.6585
 Red. masses --     1.2379                 2.4024                 1.2213
 Frc consts  --     0.0336                 0.4250                 0.3037
 IR Inten    --   290.3259                16.8386                15.1929
 Raman Activ --     0.1513                 2.7191                 1.5181
 Depolar (P) --     0.7500                 0.6901                 0.7500
 Depolar (U) --     0.8571                 0.8166                 0.8571
  Atom  AN      X      Y      Z        X      Y      Z        X      Y      Z
     1   6     0.00   0.00  -0.02    -0.01   0.20   0.00     0.00   0.00  -0.11
     2   7     0.00   0.00   0.13    -0.15  -0.02   0.00     0.00   0.00   0.04
     3   8     0.00   0.00  -0.01     0.18  -0.11   0.00     0.00   0.00   0.06
     4   1     0.00   0.00  -0.57    -0.76  -0.08   0.00     0.00   0.00  -0.74
     5   1     0.00   0.00  -0.81     0.17  -0.48   0.00     0.00   0.00   0.63
     6   1     0.00   0.00   0.01    -0.13   0.19   0.00     0.00   0.00  -0.19
                     4                      5                      6
                     A                      A                      A
 Frequencies --  1008.8885              1029.0008              1258.2946
 Red. masses --     1.5063                 1.7167                 2.8241
 Frc consts  --     0.9033                 1.0710                 2.6345
 IR Inten    --     2.1928                 1.0328                94.2995
 Raman Activ --     1.9022                 8.0504                 7.0016
 Depolar (P) --     0.7500                 0.4343                 0.3918
 Depolar (U) --     0.8571                 0.6056                 0.5631
  Atom  AN      X      Y      Z        X      Y      Z        X      Y      Z
     1   6     0.00   0.00   0.20    -0.03  -0.02   0.00    -0.18   0.27   0.00
     2   7     0.00   0.00  -0.03     0.18   0.07   0.00     0.13  -0.18   0.00
     3   8     0.00   0.00  -0.05    -0.12  -0.01   0.00    -0.02  -0.05   0.00
     4   1     0.00   0.00  -0.20    -0.48  -0.01   0.00     0.79  -0.12   0.00
     5   1     0.00   0.00   0.00     0.60  -0.53   0.00     0.06  -0.05   0.00
     6   1     0.00   0.00  -0.96    -0.29  -0.02   0.00    -0.37   0.27   0.00
                     7                      8                      9
                     A                      A                      A
 Frequencies --  1387.3798              1559.2072              1740.9873
 Red. masses --     1.2206                 1.2706                 6.9229
 Frc consts  --     1.3843                 1.8199                12.3632
 IR Inten    --    17.2308                90.8736               507.5199
 Raman Activ --     8.9351                 2.5366                 8.5638
 Depolar (P) --     0.3885                 0.5488                 0.5628
 Depolar (U) --     0.5596                 0.7087                 0.7202
  Atom  AN      X      Y      Z        X      Y      Z        X      Y      Z
     1   6     0.02  -0.07   0.00     0.01   0.06   0.00     0.56   0.21   0.00
     2   7    -0.01  -0.03   0.00     0.11  -0.06   0.00    -0.13   0.00   0.00
     3   8     0.06   0.08   0.00    -0.04  -0.03   0.00    -0.29  -0.17   0.00
     4   1    -0.06  -0.03   0.00    -0.63  -0.14   0.00     0.38   0.06   0.00
     5   1    -0.11   0.11   0.00    -0.38   0.64   0.00    -0.09  -0.07   0.00
     6   1    -0.97  -0.06   0.00     0.05   0.07   0.00    -0.55   0.21   0.00
                    10                     11                     12
                     A                      A                      A
 Frequencies --  2890.3932              3506.8371              3647.7747
 Red. masses --     1.0842                 1.0459                 1.1053
 Frc consts  --     5.3369                 7.5780                 8.6657
 IR Inten    --   137.9343                50.3648                60.9920
 Raman Activ --   130.5709               165.9633                71.5367
 Depolar (P) --     0.2668                 0.1183                 0.7326
 Depolar (U) --     0.4212                 0.2116                 0.8457
  Atom  AN      X      Y      Z        X      Y      Z        X      Y      Z
     1   6     0.00   0.08   0.00     0.00   0.00   0.00     0.00   0.00   0.00
     2   7     0.00   0.00   0.00     0.05  -0.03   0.00     0.04   0.08   0.00
     3   8     0.00   0.00   0.00     0.00   0.00   0.00     0.00   0.00   0.00
     4   1     0.00   0.01   0.00    -0.08   0.75   0.00     0.07  -0.65   0.00
     5   1     0.00   0.01   0.00    -0.54  -0.38   0.00    -0.62  -0.43   0.00
     6   1    -0.01  -1.00   0.00     0.00   0.01   0.00     0.00  -0.01   0.00

 -------------------
 - Thermochemistry -
 -------------------
 Temperature   298.150 Kelvin.  Pressure   1.00000 Atm.
 Atom     1 has atomic number  6 and mass  12.00000
 Atom     2 has atomic number  7 and mass  14.00307
 Atom     3 has atomic number  8 and mass  15.99491
 Atom     4 has atomic number  1 and mass   1.00783
 Atom     5 has atomic number  1 and mass   1.00783
 Atom     6 has atomic number  1 and mass   1.00783
 Molecular mass:    45.02146 amu.
 Principal axes and moments of inertia in atomic units:
                           1         2         3
     Eigenvalues --    24.83504 162.04853 186.88357
           X            0.99983  -0.01853  -0.00002
           Y            0.01853   0.99983  -0.00002
           Z            0.00002   0.00001   1.00000
 This molecule is an asymmetric top.
 Rotational symmetry number  1.
 Rotational temperatures (Kelvin)      3.48757     0.53449     0.46346
 Rotational constants (GHZ):          72.66915    11.13704     9.65704
 Zero-point vibrational energy     116282.5 (Joules/Mol)
                                   27.79218 (Kcal/Mol)
 Warning -- explicit consideration of   2 degrees of freedom as
           vibrations may cause significant error
 Vibrational temperatures:    308.64   788.42   934.71  1451.56  1480.50
          (Kelvin)           1810.40  1996.13  2243.35  2504.89  4158.63
                             5045.55  5248.33
 
 Zero-point correction=                           0.044290 (Hartree/Particle)
 Thermal correction to Energy=                    0.048081
 Thermal correction to Enthalpy=                  0.049026
 Thermal correction to Gibbs Free Energy=         0.019686
 Sum of electronic and zero-point Energies=           -169.670622
 Sum of electronic and thermal Energies=              -169.666830
 Sum of electronic and thermal Enthalpies=            -169.665886
 Sum of electronic and thermal Free Energies=         -169.695225
 
                     E (Thermal)             CV                S
                      KCal/Mol        Cal/Mol-Kelvin    Cal/Mol-Kelvin
 Total                   30.172             10.940             61.750
 Electronic               0.000              0.000              0.000
 Translational            0.889              2.981             37.339
 Rotational               0.889              2.981             21.247
 Vibrational             28.394              4.979              3.163
 Vibration     1          0.644              1.819              2.005
 Vibration     2          0.903              1.144              0.548
                       Q            Log10(Q)             Ln(Q)
 Total Bot       0.880885D-09         -9.055081        -20.850094
 Total V=0       0.207352D+12         11.316708         26.057683
 Vib (Bot)       0.755697D-20        -20.121652        -46.331816
 Vib (Bot)    1  0.924207D+00         -0.034231         -0.078820
 Vib (Bot)    2  0.286937D+00         -0.542213         -1.248492
 Vib (V=0)       0.177884D+01          0.250136          0.575960
 Vib (V=0)    1  0.155079D+01          0.190553          0.438764
 Vib (V=0)    2  0.107648D+01          0.032007          0.073700
 Electronic      0.100000D+01          0.000000          0.000000
 Translational   0.118737D+08          7.074585         16.289833
 Rotational      0.981718D+04          3.991987          9.191890
 ***** Axes restored to original set *****
 -------------------------------------------------------------------
 Center     Atomic                   Forces (Hartrees/Bohr)
 Number     Number              X              Y              Z
 -------------------------------------------------------------------
      1        6           0.000003107    0.000001591   -0.000000450
      2        7          -0.000008783    0.000005543    0.000001462
      3        8          -0.000003681    0.000009144   -0.000000086
      4        1          -0.000006907   -0.000007058   -0.000000455
      5        1           0.000006532   -0.000014158   -0.000000552
      6        1           0.000009732    0.000004937    0.000000082
 -------------------------------------------------------------------
 Cartesian Forces:  Max     0.000014158 RMS     0.000006145

 GradGradGradGradGradGradGradGradGradGradGradGradGradGradGradGradGradGrad
 Berny optimization.
 Internal  Forces:  Max     0.000006900 RMS     0.000002530
 Search for a local minimum.
 Step number   1 out of a maximum of    2
 All quantities printed in internal units (Hartrees-Bohrs-Radians)
 Second derivative matrix not updated -- analytic derivatives used.
 The second derivative matrix:
                          R1        R2        R3        R4        R5
           R1           0.46404
           R2           0.07571   0.75257
           R3           0.01637   0.03066   0.29685
           R4           0.00654  -0.00165  -0.00044   0.45417
           R5           0.00339  -0.00249   0.00005  -0.00386   0.45834
           A1           0.01912   0.02881  -0.01538  -0.00781   0.00687
           A2           0.01097  -0.03870   0.01495   0.00698  -0.00383
           A3          -0.03009   0.00989   0.00043   0.00084  -0.00304
           A4           0.00227  -0.00162   0.00240   0.00570  -0.00770
           A5           0.01078   0.00367  -0.00029  -0.00939   0.00245
           A6          -0.01305  -0.00205  -0.00211   0.00368   0.00525
           D1           0.00001   0.00000   0.00000   0.00000   0.00000
           D2          -0.00001   0.00000   0.00000   0.00000   0.00000
           D3           0.00001   0.00000   0.00000   0.00000   0.00000
           D4          -0.00001   0.00000   0.00000   0.00000   0.00000
                          A1        A2        A3        A4        A5
           A1           0.15986
           A2          -0.08046   0.11607
           A3          -0.07940  -0.03561   0.11501
           A4          -0.02113   0.01704   0.00409   0.06961
           A5           0.01909  -0.01326  -0.00583  -0.03755   0.07312
           A6           0.00204  -0.00378   0.00175  -0.03206  -0.03556
           D1           0.00000   0.00000   0.00000   0.00000   0.00000
           D2           0.00000   0.00000   0.00000   0.00000   0.00000
           D3           0.00000   0.00000   0.00000   0.00000   0.00000
           D4           0.00000   0.00000   0.00000   0.00000   0.00000
                          A6        D1        D2        D3        D4
           A6           0.06762
           D1           0.00000   0.02546
           D2           0.00000   0.02664   0.03059
           D3           0.00000  -0.01477  -0.02044   0.02823
           D4           0.00000  -0.01359  -0.01649   0.02256   0.01966
     Eigenvalues ---    0.00193   0.01797   0.08404   0.09464   0.10346
     Eigenvalues ---    0.14703   0.23529   0.30314   0.44466   0.45955
     Eigenvalues ---    0.46191   0.777571000.000001000.000001000.00000
 Angle between quadratic step and forces=  74.53 degrees.
 Linear search not attempted -- first point.
 Iteration  1 RMS(Cart)=  0.00007170 RMS(Int)=  0.00000002
 Iteration  2 RMS(Cart)=  0.00000001 RMS(Int)=  0.00000001
 Variable       Old X    -DE/DX   Delta X   Delta X   Delta X     New X
                                 (Linear)    (Quad)   (Total)
    R1        2.56318   0.00000   0.00000  -0.00001  -0.00001   2.56317
    R2        2.33539   0.00000   0.00000   0.00000   0.00000   2.33539
    R3        2.10945   0.00000   0.00000   0.00000   0.00000   2.10945
    R4        1.92322   0.00000   0.00000   0.00001   0.00001   1.92323
    R5        1.91984   0.00000   0.00000   0.00000   0.00000   1.91984
    A1        2.18558   0.00000   0.00000  -0.00001  -0.00001   2.18556
    A2        1.95293   0.00000   0.00000   0.00001   0.00001   1.95294
    A3        2.14468   0.00000   0.00000   0.00001   0.00001   2.14469
    A4        2.09418   0.00000   0.00000  -0.00002  -0.00002   2.09416
    A5        2.11696   0.00001   0.00000   0.00007   0.00007   2.11703
    A6        2.07204   0.00000   0.00000  -0.00005  -0.00005   2.07199
    D1       -0.00022   0.00000   0.00000   0.00021   0.00021   0.00000
    D2       -3.14135   0.00000   0.00000  -0.00023  -0.00023  -3.14159
    D3        3.14142   0.00000   0.00000   0.00017   0.00017   3.14159
    D4        0.00028   0.00000   0.00000  -0.00027  -0.00027   0.00001
         Item               Value     Threshold  Converged?
 Maximum Force            0.000007     0.000015     YES
 RMS     Force            0.000003     0.000010     YES
 Maximum Displacement     0.000209     0.000060     NO 
 RMS     Displacement     0.000072     0.000040     NO 
 Predicted change in Energy=-6.012878D-10
 GradGradGradGradGradGradGradGradGradGradGradGradGradGradGradGradGradGrad

 1\1\GINC-CLODOMIRA\Freq\RPBEPBE\6-31G(d,p)\C1H3N1O1\DIEGOA\31-Oct-2019
 \0\\#N Geom=AllCheck Guess=TCheck SCRF=Check GenChk RPBEPBE/6-31G(d,p)
  Freq\\Title\\0,1\C,-0.1530921512,0.3893898832,0.0000124861\N,1.086238
 9387,-0.1617999481,-0.0000033881\O,-1.2146387822,-0.2433880409,-0.0000
 241516\H,1.1928102256,-1.1739294161,0.000144162\H,1.9211829018,0.41698
 70216,0.000236987\H,-0.1125311327,1.5049235002,0.0000209046\\Version=E
 M64L-G09RevA.01\State=1-A\HF=-169.7149114\RMSD=5.263e-10\RMSF=6.145e-0
 6\ZeroPoint=0.0442897\Thermal=0.0480814\Dipole=1.8194936,0.3010959,0.0
 003066\DipoleDeriv=2.1286346,-0.005075,0.0000021,0.0055178,1.0533247,0
 .0000013,0.0000035,-0.0000188,0.266028,-1.174244,0.1937216,0.000056,0.
 5027397,-0.3892198,-0.000002,0.0002569,-0.0000197,-0.6542396,-1.395608
 ,-0.1259927,-0.0000103,-0.469806,-0.7389286,0.0000015,-0.0000425,0.000
 0093,-0.4498904,0.191091,-0.0293252,-0.0000165,-0.0117885,0.1898971,0.
 0000165,-0.000087,0.0000423,0.3763493,0.2252593,0.0161935,-0.0000231,0
 .0002591,0.1839881,-0.0000125,-0.0001237,-0.0000077,0.3791596,0.024867
 1,-0.0495223,-0.0000081,-0.0269221,-0.2990615,-0.0000048,-0.0000072,-0
 .0000055,0.0825933\Polar=36.2062488,0.6876809,26.5809211,0.0008197,0.0
 001538,11.3219628\PolarDeriv=2.8408641,3.7409441,-2.113476,0.0001218,0
 .0000709,0.2717329,4.6275943,1.5058135,-9.3302124,0.0001779,0.0005557,
 0.0087588,0.0009086,0.0002304,0.0004748,0.068974,1.6515411,0.0008193,-
 0.3785358,-4.8650689,-2.9424448,-0.0019893,-0.0002754,-0.4041355,-3.44
 3221,-1.2777387,7.1522013,-0.0004612,-0.0016481,-0.200631,-0.0025199,-
 0.0006784,-0.0021329,4.4934908,-1.1197666,-0.0016112,-13.5196049,-1.43
 94467,2.1255772,0.0001473,-0.000094,-0.0669184,-3.6405153,-5.9416675,-
 1.7795718,-0.00001,-0.0002567,-0.5721482,-0.0004112,-0.0000865,-0.0000
 175,-5.8913976,-1.9648305,-0.000433,1.5499627,-0.8422237,0.07547,0.000
 3327,0.0000229,-0.0056323,-2.9344121,3.025223,-9.420338,-0.0004041,0.0
 007302,-0.1308844,0.0004758,-0.0001056,0.0010864,0.2251097,-1.6691299,
 0.0005137,9.1797958,2.0535465,2.0918583,0.0013174,0.0002705,0.1482802,
 4.3181035,2.6545012,2.1741989,0.000693,0.0005945,0.044892,0.0016571,0.
 0005745,0.0008183,1.0444076,0.8823202,0.0008224,0.3275182,1.3522486,0.
 7630153,0.0000701,0.0000051,0.056673,1.0724505,0.0338685,11.2037221,0.
 0000043,0.0000244,0.8500127,-0.0001104,0.0000656,-0.0002292,0.0594156,
 2.2198657,-0.0001112\HyperPolar=69.2557961,45.0711192,56.046546,53.465
 6659,0.0219829,0.0010339,0.0119999,2.8207717,1.4923908,0.0000727\PG=C0
 1 [X(C1H3N1O1)]\NImag=0\\0.86261557,0.13275501,0.71687053,0.00002402,0
 .00001189,0.17237861,-0.30758898,0.10722676,0.00000296,0.78842303,0.09
 075380,-0.19412978,-0.00000647,0.03731005,0.80709497,-0.00002274,0.000
 00119,-0.03819683,0.00011967,-0.00001005,0.01449713,-0.48735840,-0.251
 84326,-0.00001690,-0.09077172,-0.01897219,0.00000359,0.58323360,-0.248
 25281,-0.26767532,-0.00001083,-0.00594158,0.03683304,0.00000440,0.2921
 6833,0.24893115,-0.00001649,-0.00000914,-0.06729253,-0.00000101,0.0000
 0121,0.01631724,0.00001770,0.00001055,0.03009981,0.00646414,0.03463271
 ,-0.00000521,-0.07254274,0.03597181,-0.00001509,0.00302275,-0.00519714
 ,0.00000144,0.05896325,0.00232228,-0.01241598,0.00000256,0.03289583,-0
 .43342799,0.00005409,-0.00301535,0.00176319,-0.00000087,-0.04266169,0.
 44958396,0.00000704,-0.00000446,0.00020059,-0.00002018,0.00007489,-0.0
 0499044,-0.00000260,-0.00000100,-0.00532339,0.00001212,-0.00005997,0.0
 0879823,-0.01586427,-0.02345086,-0.00000522,-0.31726330,-0.17919978,-0
 .00008406,-0.00306840,0.00578614,-0.00000088,0.00882353,0.00804483,0.0
 0000280,0.32684327,0.01104775,0.01447769,0.00000473,-0.17834998,-0.196
 67579,-0.00005002,0.00438334,0.00014459,-0.00000122,-0.02513158,-0.006
 04342,-0.00000895,0.18827270,0.18894039,0.00000984,0.00000058,-0.01062
 274,-0.00010194,-0.00005874,0.00281450,-0.00000101,-0.00000130,0.00873
 758,0.00000692,0.00000405,-0.00556881,0.00008639,0.00005544,0.00625189
 ,-0.05826807,0.00067964,0.00000035,-0.00025628,0.03413632,-0.00000137,
 -0.00505784,-0.03856295,-0.00000077,-0.00473094,0.00241410,0.00000082,
 0.00052916,-0.00022224,-0.00000021,0.06778396,0.01137396,-0.25712714,-
 0.00000188,0.00685892,-0.01969445,0.00000039,-0.02272087,-0.01999665,-
 0.00000054,0.00238589,0.00054024,-0.00000052,0.00054697,-0.00084346,-0
 .00000002,0.00155513,0.29712146,-0.00000167,-0.00000006,-0.05646709,0.
 00000049,-0.00000084,0.00955839,-0.00000079,-0.00000181,0.01746129,-0.
 00000018,0.00000013,0.00688381,0.00000097,0.00000002,-0.00161242,0.000
 00118,0.00000257,0.02417602\\-0.00000311,-0.00000159,0.00000045,0.0000
 0878,-0.00000554,-0.00000146,0.00000368,-0.00000914,0.00000009,0.00000
 691,0.00000706,0.00000046,-0.00000653,0.00001416,0.00000055,-0.0000097
 3,-0.00000494,-0.00000008\\\@


 THE RARE EARTHS PERPLEX US IN OUR RESEARCHES,
 BAFFLE US IN OUR SPECULATIONS, AND HAUNT US IN OUR
 VERY DREAMS.  THEY STRETCH LIKE AN UNKNOWN BEFORE US,
 MOCKING, MYSTIFYING, AND MURMURING STRANGE REVELATIONS
 AND POSSIBILITIES.  -- SIR WILLIAM CROOKE, 1832-1919
 Job cpu time:  0 days  0 hours  0 minutes 43.7 seconds.
 File lengths (MBytes):  RWF=     19 Int=      0 D2E=      0 Chk=      4 Scr=      1
 Normal termination of Gaussian 09 at Thu Oct 31 12:20:39 2019.
