Title                                                                   
Force     RTD-CAM-B3LYP-FC                                            6-31G(d,p)          
Number of atoms                            I                6
Info1-9                                    I   N=           9
          14          14           0           0           0         100
           5         218           1
Charge                                     I                0
Multiplicity                               I                1
Number of electrons                        I               24
Number of alpha electrons                  I               12
Number of beta electrons                   I               12
Number of basis functions                  I               60
Number of independent functions            I               60
Number of point charges in /Mol/           I                0
Number of translation vectors              I                0
Atomic numbers                             I   N=           6
           6           7           8           1           1           1
Nuclear charges                            R   N=           6
  6.00000000E+00  7.00000000E+00  8.00000000E+00  1.00000000E+00  1.00000000E+00
  1.00000000E+00
Current cartesian coordinates              R   N=          18
 -2.86582637E-01  7.35600464E-01  3.77945227E-06  2.05496568E+00 -3.07003018E-01
 -2.64561659E-05 -2.29312786E+00 -4.59314944E-01 -6.61404147E-05  2.25553554E+00
 -2.21973846E+00  2.51333576E-04  3.63325171E+00  7.86067490E-01  4.27078106E-04
 -2.09028277E-01  2.84362020E+00  1.88972613E-05
Force Field                                I                0
Int Atom Types                             I   N=           6
           0           0           0           0           0           0
MM charges                                 R   N=           6
  0.00000000E+00  0.00000000E+00  0.00000000E+00  0.00000000E+00  0.00000000E+00
  0.00000000E+00
Integer atomic weights                     I   N=           6
          12          14          16           1           1           1
Real atomic weights                        R   N=           6
  1.20000000E+01  1.40030740E+01  1.59949146E+01  1.00782504E+00  1.00782504E+00
  1.00782504E+00
Atom fragment info                         I   N=           6
           0           0           0           0           0           0
Atom residue num                           I   N=           6
           0           0           0           0           0           0
Nuclear spins                              I   N=           6
           0           2           0           1           1           1
Nuclear ZEff                               R   N=           6
 -3.60000000E+00 -4.55000000E+00 -5.60000000E+00 -1.00000000E+00 -1.00000000E+00
 -1.00000000E+00
Nuclear QMom                               R   N=           6
  0.00000000E+00  2.04400000E+00  0.00000000E+00  0.00000000E+00  0.00000000E+00
  0.00000000E+00
Nuclear GFac                               R   N=           6
  0.00000000E+00  4.03761000E-01  0.00000000E+00  2.79284600E+00  2.79284600E+00
  2.79284600E+00
MicOpt                                     I   N=           6
          -1          -1          -1          -1          -1          -1
Number of contracted shells                I               21
Number of primitive shells                 I               48
Pure/Cartesian d shells                    I                1
Pure/Cartesian f shells                    I                0
Highest angular momentum                   I                2
Largest degree of contraction              I                6
Shell types                                I   N=          21
           0          -1          -1           2           0          -1
          -1           2           0          -1          -1           2
           0           0           1           0           0           1
           0           0           1
Number of primitives per shell             I   N=          21
           6           3           1           1           6           3
           1           1           6           3           1           1
           3           1           1           3           1           1
           3           1           1
Shell to atom map                          I   N=          21
           1           1           1           1           2           2
           2           2           3           3           3           3
           4           4           4           5           5           5
           6           6           6
Primitive exponents                        R   N=          48
  3.04752488E+03  4.57369518E+02  1.03948685E+02  2.92101553E+01  9.28666296E+00
  3.16392696E+00  7.86827235E+00  1.88128854E+00  5.44249258E-01  1.68714478E-01
  8.00000000E-01  4.17351146E+03  6.27457911E+02  1.42902093E+02  4.02343293E+01
  1.28202129E+01  4.39043701E+00  1.16263619E+01  2.71627981E+00  7.72218397E-01
  2.12031498E-01  8.00000000E-01  5.48467166E+03  8.25234946E+02  1.88046958E+02
  5.29645000E+01  1.68975704E+01  5.79963534E+00  1.55396162E+01  3.59993359E+00
  1.01376175E+00  2.70005823E-01  8.00000000E-01  1.87311370E+01  2.82539436E+00
  6.40121692E-01  1.61277759E-01  1.10000000E+00  1.87311370E+01  2.82539436E+00
  6.40121692E-01  1.61277759E-01  1.10000000E+00  1.87311370E+01  2.82539436E+00
  6.40121692E-01  1.61277759E-01  1.10000000E+00
Contraction coefficients                   R   N=          48
  1.83473713E-03  1.40373228E-02  6.88426223E-02  2.32184443E-01  4.67941348E-01
  3.62311985E-01 -1.19332420E-01 -1.60854152E-01  1.14345644E+00  1.00000000E+00
  1.00000000E+00  1.83477216E-03  1.39946270E-02  6.85865518E-02  2.32240873E-01
  4.69069948E-01  3.60455199E-01 -1.14961182E-01 -1.69117479E-01  1.14585195E+00
  1.00000000E+00  1.00000000E+00  1.83107443E-03  1.39501722E-02  6.84450781E-02
  2.32714336E-01  4.70192898E-01  3.58520853E-01 -1.10777550E-01 -1.48026263E-01
  1.13076702E+00  1.00000000E+00  1.00000000E+00  3.34946043E-02  2.34726953E-01
  8.13757326E-01  1.00000000E+00  1.00000000E+00  3.34946043E-02  2.34726953E-01
  8.13757326E-01  1.00000000E+00  1.00000000E+00  3.34946043E-02  2.34726953E-01
  8.13757326E-01  1.00000000E+00  1.00000000E+00
P(S=P) Contraction coefficients            R   N=          48
  0.00000000E+00  0.00000000E+00  0.00000000E+00  0.00000000E+00  0.00000000E+00
  0.00000000E+00  6.89990666E-02  3.16423961E-01  7.44308291E-01  1.00000000E+00
  0.00000000E+00  0.00000000E+00  0.00000000E+00  0.00000000E+00  0.00000000E+00
  0.00000000E+00  0.00000000E+00  6.75797439E-02  3.23907296E-01  7.40895140E-01
  1.00000000E+00  0.00000000E+00  0.00000000E+00  0.00000000E+00  0.00000000E+00
  0.00000000E+00  0.00000000E+00  0.00000000E+00  7.08742682E-02  3.39752839E-01
  7.27158577E-01  1.00000000E+00  0.00000000E+00  0.00000000E+00  0.00000000E+00
  0.00000000E+00  0.00000000E+00  0.00000000E+00  0.00000000E+00  0.00000000E+00
  0.00000000E+00  0.00000000E+00  0.00000000E+00  0.00000000E+00  0.00000000E+00
  0.00000000E+00  0.00000000E+00  0.00000000E+00
Coordinates of each shell                  R   N=          63
 -2.86582637E-01  7.35600464E-01  3.77945227E-06 -2.86582637E-01  7.35600464E-01
  3.77945227E-06 -2.86582637E-01  7.35600464E-01  3.77945227E-06 -2.86582637E-01
  7.35600464E-01  3.77945227E-06  2.05496568E+00 -3.07003018E-01 -2.64561659E-05
  2.05496568E+00 -3.07003018E-01 -2.64561659E-05  2.05496568E+00 -3.07003018E-01
 -2.64561659E-05  2.05496568E+00 -3.07003018E-01 -2.64561659E-05 -2.29312786E+00
 -4.59314944E-01 -6.61404147E-05 -2.29312786E+00 -4.59314944E-01 -6.61404147E-05
 -2.29312786E+00 -4.59314944E-01 -6.61404147E-05 -2.29312786E+00 -4.59314944E-01
 -6.61404147E-05  2.25553554E+00 -2.21973846E+00  2.51333576E-04  2.25553554E+00
 -2.21973846E+00  2.51333576E-04  2.25553554E+00 -2.21973846E+00  2.51333576E-04
  3.63325171E+00  7.86067490E-01  4.27078106E-04  3.63325171E+00  7.86067490E-01
  4.27078106E-04  3.63325171E+00  7.86067490E-01  4.27078106E-04 -2.09028277E-01
  2.84362020E+00  1.88972613E-05 -2.09028277E-01  2.84362020E+00  1.88972613E-05
 -2.09028277E-01  2.84362020E+00  1.88972613E-05
Density Number of contracted shells        I               72
Density Number of primitive shells         I               72
Density Pure/Cartesian d shells            I                0
Density Pure/Cartesian f shells            I                0
Density Highest angular momentum           I                3
Density Largest degree of contraction      I                1
Density Shell types                        I   N=          72
           0           0           0           0          -1          -2
          -1          -2          -1          -2          -1          -2
          -3          -1          -2          -3           0           0
           0           0          -1          -2          -1          -2
          -1          -2          -1          -2          -3          -1
          -2          -3           0           0           0           0
          -1          -2          -1          -2          -1          -2
          -1          -2          -3          -1          -2          -3
           0           0          -1          -2          -1          -2
          -1          -2           0           0          -1          -2
          -1          -2          -1          -2           0           0
          -1          -2          -1          -2          -1          -2
Density Number of primitives per shell     I   N=          72
           1           1           1           1           1           1
           1           1           1           1           1           1
           1           1           1           1           1           1
           1           1           1           1           1           1
           1           1           1           1           1           1
           1           1           1           1           1           1
           1           1           1           1           1           1
           1           1           1           1           1           1
           1           1           1           1           1           1
           1           1           1           1           1           1
           1           1           1           1           1           1
           1           1           1           1           1           1
Density Shell to atom map                  I   N=          72
           1           1           1           1           1           1
           1           1           1           1           1           1
           1           1           1           1           2           2
           2           2           2           2           2           2
           2           2           2           2           2           2
           2           2           3           3           3           3
           3           3           3           3           3           3
           3           3           3           3           3           3
           4           4           4           4           4           4
           4           4           5           5           5           5
           5           5           5           5           6           6
           6           6           6           6           6           6
Density Primitive exponents                R   N=          72
  6.09504976E+03  9.14739036E+02  2.07897370E+02  5.84203106E+01  1.70961976E+01
  1.70961976E+01  6.32785392E+00  6.32785392E+00  3.76257708E+00  3.76257708E+00
  1.31969604E+00  1.31969604E+00  1.31969604E+00  3.37428956E-01  3.37428956E-01
  3.37428956E-01  8.34702292E+03  1.25491582E+03  2.85804186E+02  8.04686586E+01
  2.44174064E+01  2.44174064E+01  8.78087402E+00  8.78087402E+00  5.43255961E+00
  5.43255961E+00  1.57197292E+00  1.57197292E+00  1.57197292E+00  4.24062995E-01
  4.24062995E-01  4.24062995E-01  1.09693433E+04  1.65046989E+03  3.76093916E+02
  1.05929000E+02  3.24087494E+01  3.24087494E+01  1.15992707E+01  1.15992707E+01
  7.19986717E+00  7.19986717E+00  1.80112121E+00  1.80112121E+00  1.80112121E+00
  5.40011645E-01  5.40011645E-01  5.40011645E-01  3.74622739E+01  5.65078873E+00
  2.20000000E+00  2.20000000E+00  1.28024338E+00  1.28024338E+00  3.22555518E-01
  3.22555518E-01  3.74622739E+01  5.65078873E+00  2.20000000E+00  2.20000000E+00
  1.28024338E+00  1.28024338E+00  3.22555518E-01  3.22555518E-01  3.74622739E+01
  5.65078873E+00  2.20000000E+00  2.20000000E+00  1.28024338E+00  1.28024338E+00
  3.22555518E-01  3.22555518E-01
Density Contraction coefficients           R   N=          72
  1.00000000E+00  1.00000000E+00  1.00000000E+00  1.00000000E+00  1.00000000E+00
  1.00000000E+00  1.00000000E+00  1.00000000E+00  1.00000000E+00  1.00000000E+00
  1.00000000E+00  1.00000000E+00  1.00000000E+00  1.00000000E+00  1.00000000E+00
  1.00000000E+00  1.00000000E+00  1.00000000E+00  1.00000000E+00  1.00000000E+00
  1.00000000E+00  1.00000000E+00  1.00000000E+00  1.00000000E+00  1.00000000E+00
  1.00000000E+00  1.00000000E+00  1.00000000E+00  1.00000000E+00  1.00000000E+00
  1.00000000E+00  1.00000000E+00  1.00000000E+00  1.00000000E+00  1.00000000E+00
  1.00000000E+00  1.00000000E+00  1.00000000E+00  1.00000000E+00  1.00000000E+00
  1.00000000E+00  1.00000000E+00  1.00000000E+00  1.00000000E+00  1.00000000E+00
  1.00000000E+00  1.00000000E+00  1.00000000E+00  1.00000000E+00  1.00000000E+00
  1.00000000E+00  1.00000000E+00  1.00000000E+00  1.00000000E+00  1.00000000E+00
  1.00000000E+00  1.00000000E+00  1.00000000E+00  1.00000000E+00  1.00000000E+00
  1.00000000E+00  1.00000000E+00  1.00000000E+00  1.00000000E+00  1.00000000E+00
  1.00000000E+00  1.00000000E+00  1.00000000E+00  1.00000000E+00  1.00000000E+00
  1.00000000E+00  1.00000000E+00
Density P(S=P) Contraction coefficients    R   N=          72
  0.00000000E+00  0.00000000E+00  0.00000000E+00  0.00000000E+00  1.00000000E+00
  0.00000000E+00  1.00000000E+00  0.00000000E+00  1.00000000E+00  0.00000000E+00
  1.00000000E+00  0.00000000E+00  0.00000000E+00  1.00000000E+00  0.00000000E+00
  0.00000000E+00  0.00000000E+00  0.00000000E+00  0.00000000E+00  0.00000000E+00
  1.00000000E+00  0.00000000E+00  1.00000000E+00  0.00000000E+00  1.00000000E+00
  0.00000000E+00  1.00000000E+00  0.00000000E+00  0.00000000E+00  1.00000000E+00
  0.00000000E+00  0.00000000E+00  0.00000000E+00  0.00000000E+00  0.00000000E+00
  0.00000000E+00  1.00000000E+00  0.00000000E+00  1.00000000E+00  0.00000000E+00
  1.00000000E+00  0.00000000E+00  1.00000000E+00  0.00000000E+00  0.00000000E+00
  1.00000000E+00  0.00000000E+00  0.00000000E+00  0.00000000E+00  0.00000000E+00
  1.00000000E+00  0.00000000E+00  1.00000000E+00  0.00000000E+00  1.00000000E+00
  0.00000000E+00  0.00000000E+00  0.00000000E+00  1.00000000E+00  0.00000000E+00
  1.00000000E+00  0.00000000E+00  1.00000000E+00  0.00000000E+00  0.00000000E+00
  0.00000000E+00  1.00000000E+00  0.00000000E+00  1.00000000E+00  0.00000000E+00
  1.00000000E+00  0.00000000E+00
Density Coordinates of each shell          R   N=         216
 -2.86582637E-01  7.35600464E-01  3.77945227E-06 -2.86582637E-01  7.35600464E-01
  3.77945227E-06 -2.86582637E-01  7.35600464E-01  3.77945227E-06 -2.86582637E-01
  7.35600464E-01  3.77945227E-06 -2.86582637E-01  7.35600464E-01  3.77945227E-06
 -2.86582637E-01  7.35600464E-01  3.77945227E-06 -2.86582637E-01  7.35600464E-01
  3.77945227E-06 -2.86582637E-01  7.35600464E-01  3.77945227E-06 -2.86582637E-01
  7.35600464E-01  3.77945227E-06 -2.86582637E-01  7.35600464E-01  3.77945227E-06
 -2.86582637E-01  7.35600464E-01  3.77945227E-06 -2.86582637E-01  7.35600464E-01
  3.77945227E-06 -2.86582637E-01  7.35600464E-01  3.77945227E-06 -2.86582637E-01
  7.35600464E-01  3.77945227E-06 -2.86582637E-01  7.35600464E-01  3.77945227E-06
 -2.86582637E-01  7.35600464E-01  3.77945227E-06  2.05496568E+00 -3.07003018E-01
 -2.64561659E-05  2.05496568E+00 -3.07003018E-01 -2.64561659E-05  2.05496568E+00
 -3.07003018E-01 -2.64561659E-05  2.05496568E+00 -3.07003018E-01 -2.64561659E-05
  2.05496568E+00 -3.07003018E-01 -2.64561659E-05  2.05496568E+00 -3.07003018E-01
 -2.64561659E-05  2.05496568E+00 -3.07003018E-01 -2.64561659E-05  2.05496568E+00
 -3.07003018E-01 -2.64561659E-05  2.05496568E+00 -3.07003018E-01 -2.64561659E-05
  2.05496568E+00 -3.07003018E-01 -2.64561659E-05  2.05496568E+00 -3.07003018E-01
 -2.64561659E-05  2.05496568E+00 -3.07003018E-01 -2.64561659E-05  2.05496568E+00
 -3.07003018E-01 -2.64561659E-05  2.05496568E+00 -3.07003018E-01 -2.64561659E-05
  2.05496568E+00 -3.07003018E-01 -2.64561659E-05  2.05496568E+00 -3.07003018E-01
 -2.64561659E-05 -2.29312786E+00 -4.59314944E-01 -6.61404147E-05 -2.29312786E+00
 -4.59314944E-01 -6.61404147E-05 -2.29312786E+00 -4.59314944E-01 -6.61404147E-05
 -2.29312786E+00 -4.59314944E-01 -6.61404147E-05 -2.29312786E+00 -4.59314944E-01
 -6.61404147E-05 -2.29312786E+00 -4.59314944E-01 -6.61404147E-05 -2.29312786E+00
 -4.59314944E-01 -6.61404147E-05 -2.29312786E+00 -4.59314944E-01 -6.61404147E-05
 -2.29312786E+00 -4.59314944E-01 -6.61404147E-05 -2.29312786E+00 -4.59314944E-01
 -6.61404147E-05 -2.29312786E+00 -4.59314944E-01 -6.61404147E-05 -2.29312786E+00
 -4.59314944E-01 -6.61404147E-05 -2.29312786E+00 -4.59314944E-01 -6.61404147E-05
 -2.29312786E+00 -4.59314944E-01 -6.61404147E-05 -2.29312786E+00 -4.59314944E-01
 -6.61404147E-05 -2.29312786E+00 -4.59314944E-01 -6.61404147E-05  2.25553554E+00
 -2.21973846E+00  2.51333576E-04  2.25553554E+00 -2.21973846E+00  2.51333576E-04
  2.25553554E+00 -2.21973846E+00  2.51333576E-04  2.25553554E+00 -2.21973846E+00
  2.51333576E-04  2.25553554E+00 -2.21973846E+00  2.51333576E-04  2.25553554E+00
 -2.21973846E+00  2.51333576E-04  2.25553554E+00 -2.21973846E+00  2.51333576E-04
  2.25553554E+00 -2.21973846E+00  2.51333576E-04  3.63325171E+00  7.86067490E-01
  4.27078106E-04  3.63325171E+00  7.86067490E-01  4.27078106E-04  3.63325171E+00
  7.86067490E-01  4.27078106E-04  3.63325171E+00  7.86067490E-01  4.27078106E-04
  3.63325171E+00  7.86067490E-01  4.27078106E-04  3.63325171E+00  7.86067490E-01
  4.27078106E-04  3.63325171E+00  7.86067490E-01  4.27078106E-04  3.63325171E+00
  7.86067490E-01  4.27078106E-04 -2.09028277E-01  2.84362020E+00  1.88972613E-05
 -2.09028277E-01  2.84362020E+00  1.88972613E-05 -2.09028277E-01  2.84362020E+00
  1.88972613E-05 -2.09028277E-01  2.84362020E+00  1.88972613E-05 -2.09028277E-01
  2.84362020E+00  1.88972613E-05 -2.09028277E-01  2.84362020E+00  1.88972613E-05
 -2.09028277E-01  2.84362020E+00  1.88972613E-05 -2.09028277E-01  2.84362020E+00
  1.88972613E-05
Constraint Structure                       R   N=          18
 -2.86582637E-01  7.35600464E-01  3.77945227E-06  2.05496568E+00 -3.07003018E-01
 -2.64561659E-05 -2.29312786E+00 -4.59314944E-01 -6.61404147E-05  2.25553554E+00
 -2.21973846E+00  2.51333576E-04  3.63325171E+00  7.86067490E-01  4.27078106E-04
 -2.09028277E-01  2.84362020E+00  1.88972613E-05
Num ILSW                                   I              100
ILSW                                       I   N=         100
           0           1           0           0           2           0
           0           0           0           0       20419          -1
           0           0           0           0           0           0
           0           0           1           0           1           0
           1           1           0           0           0           0
           0           0      100000           0          -1           0
           0           0           0           0           0           0
           0           0           0           1           0           0
           0           0           1           0           0           0
           0           0           4          40           0           0
           0           0          40           0           0           0
           0           0           0           0           0           0
           0           0           0           0           0           0
           0           0           0           0           0           0
           0           0           0           0           0           0
           0           0           0           0           0           0
           0           0           0           0
Num RLSW                                   I               40
RLSW                                       R   N=          40
  1.00000000E+00  1.00000000E+00  1.00000000E+00  8.10000000E-01  1.00000000E+00
  0.00000000E+00  3.30000000E-01  1.90000000E-01  0.00000000E+00  4.60000000E-01
  0.00000000E+00  3.30000000E-01  1.90000000E-01  0.00000000E+00  4.60000000E-01
  0.00000000E+00  0.00000000E+00  1.00000000E+00  0.00000000E+00  0.00000000E+00
  0.00000000E+00  0.00000000E+00  1.00000000E+00  0.00000000E+00  0.00000000E+00
  0.00000000E+00  0.00000000E+00  1.00000000E+00  0.00000000E+00  0.00000000E+00
  0.00000000E+00  0.00000000E+00  0.00000000E+00  0.00000000E+00  0.00000000E+00
  0.00000000E+00  0.00000000E+00  0.00000000E+00  1.00000000E+00  1.00000000E+00
MxBond                                     I                3
NBond                                      I   N=           6
           3           3           1           1           1           1
IBond                                      I   N=          18
           2           3           6           1           4           5
           1           0           0           2           0           0
           2           0           0           1           0           0
RBond                                      R   N=          18
  1.41000000E+00  2.00000000E+00  1.00000000E+00  1.41000000E+00  1.00000000E+00
  1.00000000E+00  2.00000000E+00  0.00000000E+00  0.00000000E+00  1.00000000E+00
  0.00000000E+00  0.00000000E+00  1.00000000E+00  0.00000000E+00  0.00000000E+00
  1.00000000E+00  0.00000000E+00  0.00000000E+00
Virial Ratio                               R      2.009581070976061E+00
SCF Energy                                 R     -1.698331140976915E+02
CIS Energy                                 R     -1.696216883667715E+02
Total Energy                               R     -1.696216883667715E+02
Post-SCF wavefunction norm                 R      1.000000000000000E+00
RMS Force                                  R      4.621817491507770E-02
RMS Density                                R      3.423557348485834E-09
External E-field                           R   N=          35
  0.00000000E+00  0.00000000E+00  0.00000000E+00  0.00000000E+00  0.00000000E+00
  0.00000000E+00  0.00000000E+00  0.00000000E+00  0.00000000E+00  0.00000000E+00
  0.00000000E+00  0.00000000E+00  0.00000000E+00  0.00000000E+00  0.00000000E+00
  0.00000000E+00  0.00000000E+00  0.00000000E+00  0.00000000E+00  0.00000000E+00
  0.00000000E+00  0.00000000E+00  0.00000000E+00  0.00000000E+00  0.00000000E+00
  0.00000000E+00  0.00000000E+00  0.00000000E+00  0.00000000E+00  0.00000000E+00
  0.00000000E+00  0.00000000E+00  0.00000000E+00  0.00000000E+00  0.00000000E+00
IOpCl                                      I                0
IROHF                                      I                0
Alpha Orbital Energies                     R   N=          60
 -1.91932866E+01 -1.44337327E+01 -1.03696571E+01 -1.10698361E+00 -9.82134255E-01
 -6.94570186E-01 -6.15675950E-01 -5.43671597E-01 -4.80500101E-01 -4.70224277E-01
 -3.33191736E-01 -3.24679182E-01  7.90205657E-02  1.43386964E-01  1.71867264E-01
  2.29137536E-01  3.14494172E-01  4.05329274E-01  5.92008203E-01  6.04152806E-01
  7.10609194E-01  7.28170251E-01  7.55991805E-01  7.83396144E-01  8.89523448E-01
  9.05864287E-01  9.13936076E-01  9.25411002E-01  1.05575468E+00  1.12634472E+00
  1.27760455E+00  1.33820894E+00  1.40267825E+00  1.45192220E+00  1.56697724E+00
  1.57381919E+00  1.82062381E+00  1.88934928E+00  1.90559193E+00  2.02978721E+00
  2.07471689E+00  2.15206877E+00  2.18670382E+00  2.19804566E+00  2.33770467E+00
  2.43323796E+00  2.55730245E+00  2.58694525E+00  2.68611113E+00  2.79765726E+00
  2.81950824E+00  2.91470803E+00  3.04272990E+00  3.07444556E+00  3.30427013E+00
  3.50966259E+00  3.70617238E+00  3.92522575E+00  4.01079441E+00  4.44809534E+00
Alpha MO coefficients                      R   N=        3600
  1.30748064E-05  5.81132585E-04 -4.40770817E-05 -7.72655862E-05 -3.59383225E-09
 -2.52747341E-03  2.00042452E-03  1.74176012E-03  6.91695797E-08 -5.76334482E-04
 -1.96998632E-04 -1.38024368E-05 -3.74206333E-04 -2.26569502E-08 -1.21796034E-08
 -4.26527075E-06  1.18939275E-05 -1.58476005E-05  4.61799247E-05 -1.96531607E-09
  1.09596788E-04 -2.31192346E-04 -6.93548721E-04  1.80915891E-09 -1.27492159E-04
  9.16636044E-05 -8.87071196E-06 -1.24702276E-04 -2.02327806E-08 -2.91774765E-08
  9.92833318E-01  2.57686157E-02  9.78974080E-04  5.55334551E-04  3.06479455E-08
  1.25613885E-02  1.11090230E-03  5.72827337E-04  4.48322025E-08 -7.56514991E-03
 -7.77856328E-03 -7.88884769E-03  2.04814087E-04  1.50479752E-08  7.04379187E-09
 -1.61575114E-04 -2.63887990E-04 -3.13390353E-05 -7.53864288E-05  2.44231458E-08
  1.78319739E-04  1.03737197E-05 -7.83073839E-06 -5.74926481E-05 -3.48994236E-08
 -3.75073658E-05 -5.53356843E-04 -1.63578926E-06  3.10221981E-05 -1.04667462E-09
  3.69473775E-05  2.32168476E-04  3.01423914E-04 -1.43849338E-04 -1.34678356E-08
 -3.57508197E-04 -8.95711614E-05 -2.61915769E-06  5.84034318E-08  9.30025539E-05
  8.90367319E-05 -1.58615855E-05 -1.61187507E-05 -1.06179355E-08  4.28900784E-09
  9.92641935E-01  3.47817981E-02  4.03027879E-05  3.31724686E-06  3.64877319E-07
  4.15113978E-03  8.87652391E-05 -4.43871961E-05 -9.27304868E-08 -8.33743398E-03
 -8.28486890E-03 -8.32853943E-03  3.24494686E-05  1.54283795E-08 -1.82294673E-09
  3.81794782E-06  2.32546382E-05 -2.57968421E-05 -1.97412074E-06 -1.34664401E-09
 -3.55656467E-05 -9.21893317E-05  3.84498167E-05 -1.66478738E-08 -9.35554316E-05
  3.08310119E-05  5.66306433E-06  8.90314372E-06 -3.91282332E-09 -4.74246585E-09
  3.17026435E-04 -5.26562386E-04  1.21596285E-06 -1.25348338E-05 -5.92005329E-09
  3.15324773E-04 -5.27155333E-04  1.63578800E-05  1.21554020E-05 -3.71387757E-09
 -5.28854472E-05  1.48363340E-05 -5.04122112E-05  6.43921853E-05 -3.23620275E-09
  9.92802462E-01  4.80548666E-02 -8.36529631E-05 -5.75908076E-04 -7.31321219E-08
 -6.74078569E-03 -2.00256041E-03 -2.17940992E-03 -9.72955548E-09 -8.38836287E-03
 -9.02182598E-03 -9.76568532E-03  2.87169918E-04  2.55571099E-08  2.80914775E-08
 -2.13856188E-04 -8.85182693E-05  2.10720359E-04 -1.61391082E-04 -3.45107398E-08
  1.50999432E-03  4.04295274E-04  9.29908498E-04 -1.84027370E-08 -6.79616958E-04
 -4.83332808E-04 -1.90021260E-05  2.04155472E-04 -1.25160006E-09  2.52403449E-08
 -1.17924225E-04  3.99306212E-04  3.79342592E-06 -1.06511925E-05  5.67196013E-09
 -2.75467999E-03 -1.69702724E-03 -8.50475390E-04 -8.36099426E-08 -2.04447748E-04
  1.22910826E-04  3.87632697E-04 -2.93580821E-04 -2.48379852E-08 -1.41381650E-08
  2.59187980E-04  4.06841783E-04 -1.18570795E-04  2.23949788E-04 -4.69142947E-08
 -1.01403491E-04 -1.18664095E-04 -2.03268051E-04 -7.64225564E-06 -1.19303667E-08
 -2.89100301E-04  2.68264600E-03  6.99792643E-05  1.61299807E-04  9.55477601E-10
 -1.29326174E-01  2.54833269E-01 -1.05186432E-01 -1.02983428E-01 -5.20561784E-06
  7.77911607E-02  6.95042092E-03  2.52863788E-02  1.01739760E-06  1.21941973E-02
 -1.08588747E-02 -2.17237665E-02  1.69805203E-02  1.24742497E-06  7.39923659E-07
 -6.19850629E-02  1.26265780E-01 -4.70260385E-02  9.68957891E-03  6.56848666E-06
  1.18235525E-01 -2.56420939E-02 -1.75722289E-03  2.33307969E-06  7.52703240E-03
 -2.99513493E-03 -6.06551996E-03 -2.97255052E-03 -6.18636981E-08  2.62627515E-08
 -1.79561272E-01  3.86302840E-01  1.30181206E-01  7.16956329E-02  4.25391720E-06
  3.72227193E-01  4.69932345E-02  2.09511728E-02  1.39441045E-06  5.50417396E-03
 -6.49214969E-03 -7.91907112E-03  9.76533655E-03  5.00410149E-07  2.81718800E-07
  3.07277100E-02  2.39012192E-03 -1.44644186E-03  4.81814872E-03 -5.41762790E-07
  2.68802686E-02  1.86056968E-03 -3.04489964E-03 -1.86820601E-03 -7.48987685E-07
  3.40657232E-02 -9.46675870E-03 -1.62361745E-03 -6.88441051E-03 -1.21202029E-07
 -3.79980496E-02  7.77898214E-02  2.14588541E-01 -1.66732322E-03  4.51929638E-06
  1.05205138E-02  2.03292596E-03  1.29133352E-02  4.80075124E-07  5.99152958E-03
 -2.78907574E-03 -3.88665796E-03 -2.26853698E-02 -3.29114925E-07 -4.32528476E-07
 -1.89140598E-01  3.90328349E-01 -2.43996538E-02  2.31552016E-02  2.93208792E-05
  4.03449184E-01 -1.50824905E-02  1.21464631E-02  1.24890245E-05 -3.34574023E-03
 -4.30628857E-03 -1.69380867E-02 -3.10736335E-03  1.23135840E-06  4.00504277E-07
  8.66545229E-02 -1.90782031E-01 -3.08824837E-02 -3.56641294E-02 -1.49595711E-06
 -1.82507592E-01  1.82781599E-04 -1.04943263E-02 -2.74476357E-07  3.01124184E-03
  3.89792226E-04  2.23711677E-03 -2.43709557E-03 -6.53565210E-09 -1.18437603E-07
  1.13123989E-01  1.11365750E-02 -1.73223747E-03  1.56662746E-02 -1.73935290E-06
  1.20821876E-01  1.33185405E-02 -1.41648477E-02 -9.18926080E-03 -3.49042794E-06
  2.13843993E-02  2.46037852E-03  2.07866560E-03 -2.24234848E-03  4.32979331E-08
 -1.34913137E-01  2.94398196E-01  1.47063859E-01  1.31079918E-01 -6.40002660E-06
  2.23085123E-01  4.69766307E-02  6.09537180E-02  1.31737791E-06 -1.02864543E-02
 -5.05499217E-03 -1.34059037E-02 -6.53081571E-03 -1.56741855E-06  5.93337058E-07
  5.12246885E-02 -1.09559639E-01 -2.47188984E-01  2.20883502E-01 -3.81532902E-05
 -1.54231439E-01 -1.01732222E-01  8.74442103E-02 -1.80139260E-05  8.11081966E-03
 -2.69194492E-03  3.93837160E-03 -1.11933772E-02 -4.01543030E-06  2.97794417E-06
  6.33120723E-02 -1.43907520E-01  4.88512681E-02  5.40471167E-02 -1.85103733E-06
 -1.69329427E-01  3.90196167E-02  3.37208620E-02 -1.03375457E-06  6.67018795E-03
  3.81657530E-03 -7.14259600E-04  6.79057284E-03 -1.10662274E-07 -3.42262957E-08
 -1.67040985E-01 -6.73578033E-02 -3.04196567E-03 -1.29224832E-02  1.97191795E-06