 Entering Gaussian System, Link 0=g09
 Input=td1.com
 Output=td1.log
 Initial command:
 /home/diegoa/progs/g09/l1.exe /home/diegoa/g09scratch/Gau-21425.inp -scrdir=/home/diegoa/g09scratch/
 Default is to use a total of   4 processors:
                                4 via shared-memory
                                1 via Linda
 Entering Link 1 = /home/diegoa/progs/g09/l1.exe PID=     21427.
  
 Copyright (c) 1988,1990,1992,1993,1995,1998,2003,2009, Gaussian, Inc.
                  All Rights Reserved.
  
 This is part of the Gaussian(R) 09 program.  It is based on
 the Gaussian(R) 03 system (copyright 2003, Gaussian, Inc.),
 the Gaussian(R) 98 system (copyright 1998, Gaussian, Inc.),
 the Gaussian(R) 94 system (copyright 1995, Gaussian, Inc.),
 the Gaussian 92(TM) system (copyright 1992, Gaussian, Inc.),
 the Gaussian 90(TM) system (copyright 1990, Gaussian, Inc.),
 the Gaussian 88(TM) system (copyright 1988, Gaussian, Inc.),
 the Gaussian 86(TM) system (copyright 1986, Carnegie Mellon
 University), and the Gaussian 82(TM) system (copyright 1983,
 Carnegie Mellon University). Gaussian is a federally registered
 trademark of Gaussian, Inc.
  
 This software contains proprietary and confidential information,
 including trade secrets, belonging to Gaussian, Inc.
  
 This software is provided under written license and may be
 used, copied, transmitted, or stored only in accord with that
 written license.
  
 The following legend is applicable only to US Government
 contracts under FAR:
  
                    RESTRICTED RIGHTS LEGEND
  
 Use, reproduction and disclosure by the US Government is
 subject to restrictions as set forth in subparagraphs (a)
 and (c) of the Commercial Computer Software - Restricted
 Rights clause in FAR 52.227-19.
  
 Gaussian, Inc.
 340 Quinnipiac St., Bldg. 40, Wallingford CT 06492
  
  
 ---------------------------------------------------------------
 Warning -- This program may not be used in any manner that
 competes with the business of Gaussian, Inc. or will provide
 assistance to any competitor of Gaussian, Inc.  The licensee
 of this program is prohibited from giving any competitor of
 Gaussian, Inc. access to this program.  By using this program,
 the user acknowledges that Gaussian, Inc. is engaged in the
 business of creating and licensing software in the field of
 computational chemistry and represents and warrants to the
 licensee that it is not a competitor of Gaussian, Inc. and that
 it will not use this program in any manner prohibited above.
 ---------------------------------------------------------------
  

 Cite this work as:
 Gaussian 09, Revision A.01,
 M. J. Frisch, G. W. Trucks, H. B. Schlegel, G. E. Scuseria, 
 M. A. Robb, J. R. Cheeseman, G. Scalmani, V. Barone, B. Mennucci, 
 G. A. Petersson, H. Nakatsuji, M. Caricato, X. Li, H. P. Hratchian, 
 A. F. Izmaylov, J. Bloino, G. Zheng, J. L. Sonnenberg, M. Hada, 
 M. Ehara, K. Toyota, R. Fukuda, J. Hasegawa, M. Ishida, T. Nakajima, 
 Y. Honda, O. Kitao, H. Nakai, T. Vreven, J. A. Montgomery, Jr., 
 J. E. Peralta, F. Ogliaro, M. Bearpark, J. J. Heyd, E. Brothers, 
 K. N. Kudin, V. N. Staroverov, R. Kobayashi, J. Normand, 
 K. Raghavachari, A. Rendell, J. C. Burant, S. S. Iyengar, J. Tomasi, 
 M. Cossi, N. Rega, J. M. Millam, M. Klene, J. E. Knox, J. B. Cross, 
 V. Bakken, C. Adamo, J. Jaramillo, R. Gomperts, R. E. Stratmann, 
 O. Yazyev, A. J. Austin, R. Cammi, C. Pomelli, J. W. Ochterski, 
 R. L. Martin, K. Morokuma, V. G. Zakrzewski, G. A. Voth, 
 P. Salvador, J. J. Dannenberg, S. Dapprich, A. D. Daniels, 
 O. Farkas, J. B. Foresman, J. V. Ortiz, J. Cioslowski, 
 and D. J. Fox, Gaussian, Inc., Wallingford CT, 2009.
 
 ******************************************
 Gaussian 09:  EM64L-G09RevA.01  8-May-2009
                31-Oct-2019 
 ******************************************
 %chk=td1.chk
 %NProcShared=4
 Will use up to    4 processors via shared memory.
 Default route:  MP2=Direct MaxDisk=1000GB DenFit
 ---------------------------------------------------------------
 # cam-b3lyp/6-31G** force nosymm td(root=1,nstates=10) SCRF=PCM
 ---------------------------------------------------------------
 1/10=7,30=1,38=1/1,3;
 2/12=2,15=1,17=6,18=5,40=1/2;
 3/5=1,6=6,7=101,11=2,16=1,25=1,30=1,70=2201,71=1,72=1,74=-40,82=47/1,2,8,3;
 4//1;
 5/5=2,38=5/2;
 8/6=1,10=2,107=1,108=10/1;
 9/8=1,15=2,41=10,42=1/14;
 10/5=4,31=1/2;
 6/7=2,8=2,9=2,10=2,18=1/1;
 7/12=6,13=5,14=1,29=1,30=1/1,2,3,16;
 1/10=7,30=1/3;
 99//99;
 -----
 Title
 -----
 Symbolic Z-matrix:
 Charge =  0 Multiplicity = 1
 6                    -0.15165   0.38926   0. 
 7                     1.08744  -0.16246  -0.00001 
 8                    -1.21347  -0.24306  -0.00004 
 1                     1.19358  -1.17464   0.00013 
 1                     1.92263   0.41597   0.00023 
 1                    -0.11061   1.50478   0.00001 
 

 GradGradGradGradGradGradGradGradGradGradGradGradGradGradGradGradGradGrad
 Berny optimization.
 Initialization pass.
 Trust Radius=3.00D-01 FncErr=1.00D-07 GrdErr=1.00D-07
 Number of steps in this run=   2 maximum allowed number of steps=   2.
 GradGradGradGradGradGradGradGradGradGradGradGradGradGradGradGradGradGrad

                          Input orientation:                          
 ---------------------------------------------------------------------
 Center     Atomic      Atomic             Coordinates (Angstroms)
 Number     Number       Type             X           Y           Z
 ---------------------------------------------------------------------
      1          6           0       -0.151653    0.389263    0.000002
      2          7           0        1.087441   -0.162459   -0.000014
      3          8           0       -1.213471   -0.243059   -0.000035
      4          1           0        1.193578   -1.174635    0.000133
      5          1           0        1.922634    0.415969    0.000226
      6          1           0       -0.110613    1.504779    0.000010
 ---------------------------------------------------------------------
                    Distance matrix (angstroms):
                    1          2          3          4          5
     1  C    0.000000
     2  N    1.356374   0.000000
     3  O    1.235835   2.302323   0.000000
     4  H    2.062868   1.017726   2.581031   0.000000
     5  H    2.074459   1.015936   3.204602   1.749727   0.000000
     6  H    1.116271   2.053050   2.066696   2.979962   2.306426
                    6
     6  H    0.000000
 Symmetry turned off by external request.
 Stoichiometry    CH3NO
 Framework group  C1[X(CH3NO)]
 Deg. of freedom    12
 Full point group                 C1      NOp   1
 Rotational constants (GHZ):     72.6691373     11.1370459      9.6570383
 Standard basis: 6-31G(d,p) (6D, 7F)
 Integral buffers will be    131072 words long.
 Raffenetti 2 integral format.
 Two-electron integral symmetry is turned off.
    60 basis functions,   105 primitive gaussians,    60 cartesian basis functions
    12 alpha electrons       12 beta electrons
       nuclear repulsion energy        70.5338124348 Hartrees.
 NAtoms=    6 NActive=    6 NUniq=    6 SFac= 7.50D-01 NAtFMM=   80 NAOKFM=F Big=F
 Standard density basis: Auto (5D, 7F)
   276 Density fitting functions
 ------------------------------------------------------------------------------
 Polarizable Continuum Model (PCM)
 =================================
 Model                : PCM.
 Atomic radii         : UFF (Universal Force Field).
 Polarization charges : Total charges.
 Charge compensation  : None.
 Solution method      : Matrix inversion.
 Cavity type          : Scaled VdW (van der Waals Surface) (Alpha=1.100).
 Cavity algorithm     : GePol (No added spheres)
                        Default sphere list used, NSphG=    6.
                        Lebedev-Laikov grids with approx.  5.0 points / Ang**2.
                        Smoothing algorithm: Karplus/York (Gamma=1.0000).
                        Polarization charges: spherical gaussians, with
                                              point-specific exponents (IZeta= 3).
                        Self-potential: point-specific (ISelfS= 7).
                        Self-field    : sphere-specific E.n sum rule (ISelfD= 2).
 1st derivatives      : Analytical E(r).r(x)/FMM algorithm (CHGder, D1EAlg=3).
                        Cavity 1st derivative terms included.
 Solvent              : Water, Eps=  78.355300 Eps(inf)=   1.777849
 ------------------------------------------------------------------------------
 Spheres list:
 ISph  on   Nord    Re0     Alpha      Xe            Ye            Ze
    1   C      1    1.926   1.100     -0.151653      0.389263      0.000002
    2   N      2    1.830   1.100      1.087441     -0.162459     -0.000014
    3   O      3    1.750   1.100     -1.213471     -0.243059     -0.000035
    4   H      4    1.443   1.100      1.193578     -1.174635      0.000133
    5   H      5    1.443   1.100      1.922634      0.415969      0.000226
    6   H      6    1.443   1.100     -0.110613      1.504779      0.000010
 ------------------------------------------------------------------------------
 One-electron integrals computed using PRISM.
 NBasis=    60 RedAO= T  NBF=    60
 NBsUse=    60 1.00D-06 NBFU=    60
 Harris functional with IExCor=20419 diagonalized for initial guess.
 ExpMin= 1.61D-01 ExpMax= 5.48D+03 ExpMxC= 8.25D+02 IAcc=1 IRadAn=         1 AccDes= 0.00D+00
 HarFok:  IExCor=20419 AccDes= 0.00D+00 IRadAn=         1 IDoV= 1
 ScaDFX=  1.000000  1.000000  1.000000  1.000000
 FoFCou: FMM=F IPFlag=           0 FMFlag=      100000 FMFlg1=           0
         NFxFlg=           0 DoJE=T BraDBF=F KetDBF=T FulRan=T
         Omega=  0.000000  0.000000  1.000000  0.000000  0.000000 ICntrl=     500 IOpCl=  0
         NMat0=    1 NMatS0=    1 NMatT0=    0 NMatD0=    1 NMtDS0=    0 NMtDT0=    0
         I1Cent=           4 NGrid=           0.
 Symmetry not used in FoFCou.
 Requested convergence on RMS density matrix=1.00D-08 within 128 cycles.
 Requested convergence on MAX density matrix=1.00D-06.
 Requested convergence on             energy=1.00D-06.
 No special actions if energy rises.
 FoFJK:  IHMeth= 1 ICntrl=     0 DoSepK=T KAlg= 1 I1Cent= 0 FoldK=F
 FoFJK:  IHMeth= 1 ICntrl=     0 DoSepK=T KAlg= 1 I1Cent= 0 FoldK=F
 FoFJK:  IHMeth= 1 ICntrl=     0 DoSepK=T KAlg= 1 I1Cent= 0 FoldK=F
 FoFJK:  IHMeth= 1 ICntrl=     0 DoSepK=T KAlg= 1 I1Cent= 0 FoldK=F
 FoFJK:  IHMeth= 1 ICntrl=     0 DoSepK=T KAlg= 1 I1Cent= 0 FoldK=F
 FoFJK:  IHMeth= 1 ICntrl=     0 DoSepK=T KAlg= 1 I1Cent= 0 FoldK=F
 FoFJK:  IHMeth= 1 ICntrl=     0 DoSepK=T KAlg= 1 I1Cent= 0 FoldK=F
 FoFJK:  IHMeth= 1 ICntrl=     0 DoSepK=T KAlg= 1 I1Cent= 0 FoldK=F
 FoFJK:  IHMeth= 1 ICntrl=     0 DoSepK=T KAlg= 1 I1Cent= 0 FoldK=F
 FoFJK:  IHMeth= 1 ICntrl=     0 DoSepK=T KAlg= 1 I1Cent= 0 FoldK=F
 FoFJK:  IHMeth= 1 ICntrl=     0 DoSepK=T KAlg= 1 I1Cent= 0 FoldK=F
 Error on total polarization charges =  0.00328
 SCF Done:  E(RCAM-B3LYP) =  -169.833114098     A.U. after   11 cycles
             Convg  =    0.3424D-08             -V/T =  2.0096
 ExpMin= 1.61D-01 ExpMax= 5.48D+03 ExpMxC= 8.25D+02 IAcc=1 IRadAn=         1 AccDes= 0.00D+00
 HarFok:  IExCor=  205 AccDes= 0.00D+00 IRadAn=         1 IDoV=-2
 ScaDFX=  1.000000  1.000000  1.000000  1.000000
 Range of M.O.s used for correlation:     4    60
 NBasis=    60 NAE=    12 NBE=    12 NFC=     3 NFV=     0
 NROrb=     57 NOA=     9 NOB=     9 NVA=    48 NVB=    48
 NEqPCM:  Using equilibrium solvation (IEInf=0, Eps=  78.3553, EpsInf=   1.7778)
    40 initial guesses have been made.
 Convergence on wavefunction:    0.000001000000000
 Iteration     1 Dimension    40 NMult    40
 CISAX will form    40 AO SS matrices at one time.
 FoFJK:  IHMeth= 1 ICntrl=     0 DoSepK=T KAlg= 1 I1Cent= 0 FoldK=F
 FoFJK:  IHMeth= 1 ICntrl=     0 DoSepK=T KAlg= 1 I1Cent= 0 FoldK=F
 New state      3 was old state      4
 New state      4 was old state      6
 New state      5 was old state      3
 New state      6 was old state      5
 New state      7 was old state      9
 New state      8 was old state     10
 New state      9 was old state      8
 No map to state     10
 Iteration     2 Dimension    60 NMult    60
 FoFJK:  IHMeth= 1 ICntrl=     0 DoSepK=T KAlg= 1 I1Cent= 0 FoldK=F
 FoFJK:  IHMeth= 1 ICntrl=     0 DoSepK=T KAlg= 1 I1Cent= 0 FoldK=F
 No map to state     10
 Iteration     3 Dimension    80 NMult    80
 FoFJK:  IHMeth= 1 ICntrl=     0 DoSepK=T KAlg= 1 I1Cent= 0 FoldK=F
 FoFJK:  IHMeth= 1 ICntrl=     0 DoSepK=T KAlg= 1 I1Cent= 0 FoldK=F
 New state      9 was old state     10
 New state     10 was old state      9
 Iteration     4 Dimension   100 NMult   100
 FoFJK:  IHMeth= 1 ICntrl=     0 DoSepK=T KAlg= 1 I1Cent= 0 FoldK=F
 FoFJK:  IHMeth= 1 ICntrl=     0 DoSepK=T KAlg= 1 I1Cent= 0 FoldK=F
 Iteration     5 Dimension   120 NMult   120
 FoFJK:  IHMeth= 1 ICntrl=     0 DoSepK=T KAlg= 1 I1Cent= 0 FoldK=F
 FoFJK:  IHMeth= 1 ICntrl=     0 DoSepK=T KAlg= 1 I1Cent= 0 FoldK=F
 Iteration     6 Dimension   140 NMult   140
 FoFJK:  IHMeth= 1 ICntrl=     0 DoSepK=T KAlg= 1 I1Cent= 0 FoldK=F
 FoFJK:  IHMeth= 1 ICntrl=     0 DoSepK=T KAlg= 1 I1Cent= 0 FoldK=F
 Iteration     7 Dimension   156 NMult   156
 FoFJK:  IHMeth= 1 ICntrl=     0 DoSepK=T KAlg= 1 I1Cent= 0 FoldK=F
 FoFJK:  IHMeth= 1 ICntrl=     0 DoSepK=T KAlg= 1 I1Cent= 0 FoldK=F
 Iteration     8 Dimension   160 NMult   160
 FoFJK:  IHMeth= 1 ICntrl=     0 DoSepK=T KAlg= 1 I1Cent= 0 FoldK=F
 FoFJK:  IHMeth= 1 ICntrl=     0 DoSepK=T KAlg= 1 I1Cent= 0 FoldK=F
 Iteration     9 Dimension   162 NMult   162
 FoFJK:  IHMeth= 1 ICntrl=     0 DoSepK=T KAlg= 1 I1Cent= 0 FoldK=F
 FoFJK:  IHMeth= 1 ICntrl=     0 DoSepK=T KAlg= 1 I1Cent= 0 FoldK=F
 ***********************************************************************
 Excited states from <AA,BB:AA,BB> singles matrix:
 ***********************************************************************
 
 Ground to excited state transition electric dipole moments (Au):
       state          X           Y           Z        Dip. S.      Osc.
         1         0.0000      0.0000      0.0970      0.0094      0.0013
         2         1.1810     -0.1059      0.0000      1.4059      0.2677
         3        -0.0002      0.0000      0.1318      0.0174      0.0038
         4        -0.0001      0.0003      0.0340      0.0012      0.0003
         5        -0.9130      0.3429     -0.0001      0.9512      0.2258
         6         0.3773      0.8213      0.0000      0.8168      0.1975
         7         0.0001      0.0001     -0.0835      0.0070      0.0017
         8         0.0001      0.0000      0.0094      0.0001      0.0000
         9        -0.1225     -0.5740      0.0000      0.3445      0.0949
        10         0.1087     -0.5070      0.0000      0.2689      0.0752
 Ground to excited state transition velocity dipole moments (Au):
       state          X           Y           Z        Dip. S.      Osc.
         1         0.0000      0.0000     -0.0223      0.0005      0.0016
         2        -0.3255      0.0260      0.0000      0.1066      0.2489
         3         0.0001      0.0000     -0.0759      0.0058      0.0117
         4         0.0000     -0.0001     -0.0212      0.0005      0.0009
         5         0.2998     -0.1163      0.0000      0.1034      0.1936
         6        -0.1473     -0.2848      0.0000      0.1028      0.1890
         7         0.0000      0.0000      0.0493      0.0024      0.0043
         8         0.0000      0.0000     -0.0037      0.0000      0.0000
         9         0.0455      0.2178      0.0000      0.0495      0.0798
        10        -0.0541      0.2028      0.0000      0.0441      0.0700
 Ground to excited state transition magnetic dipole moments (Au):
       state          X           Y           Z
         1        -0.9070     -0.4280      0.0000
         2         0.0001      0.0000      0.3590
         3         0.0043      0.3351      0.0000
         4         0.2400     -0.0441      0.0000
         5         0.0000      0.0000     -0.1694
         6        -0.0001      0.0000     -0.2566
         7        -0.9515      1.1599      0.0000
         8         0.0924     -0.1008      0.0001
         9         0.0000     -0.0002      0.0433
        10        -0.0001      0.0000     -0.1520
 <0|del|b> * <b|rxdel|0> + <0|del|b> * <b|delr+rdel|0>
 Rotatory Strengths (R) in cgs (10**-40 erg-esu-cm/Gauss)
       state          XX          YY          ZZ    R(velocity)
         1        -0.0007      0.0145      0.0118      0.0085
 Total R(velocity) tensor for State=          1
                 1             2             3 
      1  -0.718196D-03 -0.662058D-02  0.000000D+00
      2   0.787982D-03  0.145095D-01  0.000000D+00
      3  -0.318187D+02 -0.156584D+02  0.118261D-01
         2         0.0009     -0.0367     -0.0242     -0.0200
 Total R(velocity) tensor for State=          2
                 1             2             3 
      1   0.876814D-03 -0.708603D-02  0.229795D+03
      2  -0.280192D-02 -0.366626D-01  0.206148D+02
      3   0.135347D+01  0.169276D+02 -0.242337D-01
         3         0.0073      0.0024     -0.0012      0.0029
 Total R(velocity) tensor for State=          3
                 1             2             3 
      1   0.729370D-02 -0.410670D-01  0.432560D-05
      2   0.683776D-04  0.243669D-02  0.000000D+00
      3  -0.165769D+01  0.510957D+01 -0.115198D-02
         4         0.0062      0.0042      0.0027      0.0044
 Total R(velocity) tensor for State=          4
                 1             2             3 
      1   0.615493D-02  0.437609D-02 -0.140435D-04
      2   0.374454D-01  0.422104D-02  0.308136D-05
      3   0.246014D+01 -0.354701D+00  0.269978D-02
         5        -0.0079     -0.0174     -0.0095     -0.0116
 Total R(velocity) tensor for State=          5
                 1             2             3 
      1  -0.794154D-02 -0.929379D-02  0.416021D+02
      2  -0.124840D-02 -0.174342D-01 -0.528614D+02
      3   0.272083D+01  0.701685D+01 -0.953724D-02
         6        -0.0037      0.0219      0.0073      0.0085
 Total R(velocity) tensor for State=          6
                 1             2             3 
      1  -0.367640D-02  0.188016D-02 -0.928906D+02
      2  -0.424172D-01  0.218954D-01 -0.146966D+03
      3   0.317854D+01 -0.164315D+01  0.729203D-02
         7        -0.0347      0.0375      0.0072      0.0033
 Total R(velocity) tensor for State=          7
                 1             2             3 
      1  -0.346676D-01  0.489065D-01 -0.249075D-05
      2  -0.258188D-01  0.375494D-01 -0.131087D-05
      3   0.368474D+02 -0.426556D+02  0.715335D-02
         8         0.0005     -0.0044     -0.0008     -0.0015
 Total R(velocity) tensor for State=          8
                 1             2             3 
      1   0.494597D-03 -0.503613D-02  0.188571D-05
      2   0.109452D-04 -0.437924D-02  0.516069D-05
      3   0.928864D-01 -0.148380D-01 -0.762490D-03
         9        -0.0507     -0.0005     -0.0198     -0.0236
 Total R(velocity) tensor for State=          9
                 1             2             3 
      1  -0.506626D-01  0.176738D-01 -0.132673D+03
      2   0.755678D-02 -0.504593D-03 -0.200451D+02
      3  -0.381339D+02  0.795923D+01 -0.197708D-01
        10         0.0139      0.0078     -0.0094      0.0041
 Total R(velocity) tensor for State=         10
                 1             2             3 
      1   0.139158D-01  0.340129D-02 -0.170345D+03
      2   0.290067D-01  0.776017D-02  0.163071D+02
      3  -0.122991D+02 -0.327791D+01 -0.939782D-02
 1/2[<0|r|b>*<b|rxdel|0> + (<0|rxdel|b>*<b|r|0>)*]
 Rotatory Strengths (R) in cgs (10**-40 erg-esu-cm/Gauss)
       state          XX          YY          ZZ     R(length)     R(au)
         1         0.0288     -0.0043      0.0004      0.0083      0.0000
         2        -0.0637     -0.0004      0.0072     -0.0190      0.0000
         3         0.0006     -0.0017      0.0033      0.0007      0.0000
         4         0.0093      0.0086      0.0001      0.0060      0.0000
         5        -0.0152     -0.0109     -0.0095     -0.0119      0.0000
         6         0.0220      0.0019      0.0007      0.0082      0.0000
         7         0.0686     -0.0544     -0.0029      0.0038      0.0000
         8        -0.0038      0.0028     -0.0005     -0.0005      0.0000
         9        -0.0041     -0.0743      0.0011     -0.0258     -0.0001
        10         0.0082      0.0026     -0.0003      0.0035      0.0000
  1/2[<0|del|b>*<b|r|0> + (<0|r|b>*<b|del|0>)*] (Au)
       state          X           Y           Z        Dip. S.   Osc.(frdel)
         1         0.0000      0.0000     -0.0022      0.0022      0.0014
         2        -0.3844     -0.0028      0.0000      0.3872      0.2581
         3         0.0000      0.0000     -0.0100      0.0100      0.0067
         4         0.0000      0.0000     -0.0007      0.0007      0.0005
         5        -0.2737     -0.0399      0.0000      0.3136      0.2091
         6        -0.0556     -0.2339      0.0000      0.2895      0.1930
         7         0.0000      0.0000     -0.0041      0.0041      0.0027
         8         0.0000      0.0000      0.0000      0.0000      0.0000
         9        -0.0056     -0.1250      0.0000      0.1306      0.0871
        10        -0.0059     -0.1028      0.0000      0.1087      0.0725
 Ground to excited state transition densities written to RWF  633

 Excitation energies and oscillator strengths:
 
 Excited state symmetry could not be determined.
 Excited State   1:      Singlet-?Sym    5.7532 eV  215.51 nm  f=0.0013  <S**2>=0.000
      12 -> 13         0.70652
 This state for optimization and/or second-order correction.
 Copying the excited state density for this state as the 1-particle RhoCI density.
 
 Excited state symmetry could not be determined.
 Excited State   2:      Singlet-?Sym    7.7721 eV  159.53 nm  f=0.2677  <S**2>=0.000
      11 -> 13         0.68171
      12 -> 14         0.15338
 
 Excited state symmetry could not be determined.
 Excited State   3:      Singlet-?Sym    8.9005 eV  139.30 nm  f=0.0038  <S**2>=0.000
      10 -> 14         0.10374
      11 -> 14         0.69779
 
 Excited state symmetry could not be determined.
 Excited State   4:      Singlet-?Sym    9.5681 eV  129.58 nm  f=0.0003  <S**2>=0.000
      11 -> 15         0.69043
      11 -> 16         0.10864
 
 Excited state symmetry could not be determined.
 Excited State   5:      Singlet-?Sym    9.6907 eV  127.94 nm  f=0.2258  <S**2>=0.000
      11 -> 13        -0.13458
      12 -> 14         0.66036
      12 -> 15         0.19162
 
 Excited state symmetry could not be determined.
 Excited State   6:      Singlet-?Sym    9.8690 eV  125.63 nm  f=0.1975  <S**2>=0.000
      12 -> 14        -0.16502
      12 -> 15         0.66617
      12 -> 16        -0.11712
 
 Excited state symmetry could not be determined.
 Excited State   7:      Singlet-?Sym   10.1760 eV  121.84 nm  f=0.0017  <S**2>=0.000
       9 -> 13         0.70271
 
 Excited state symmetry could not be determined.
 Excited State   8:      Singlet-?Sym   11.1423 eV  111.27 nm  f=0.0000  <S**2>=0.000
      11 -> 15        -0.11952
      11 -> 16         0.68276
 
 Excited state symmetry could not be determined.
 Excited State   9:      Singlet-?Sym   11.2507 eV  110.20 nm  f=0.0949  <S**2>=0.000
      10 -> 13         0.63443
      12 -> 16        -0.21883
      12 -> 17         0.11754
 
 Excited state symmetry could not be determined.
 Excited State  10:      Singlet-?Sym   11.4201 eV  108.57 nm  f=0.0752  <S**2>=0.000
      10 -> 13         0.23994
      12 -> 16         0.64228
      12 -> 17        -0.11913
 SavETr:  write IOETrn=   770 NScale= 10 NData=  16 NLR=1 LETran=     190.
 FoFJK:  IHMeth= 1 ICntrl=     0 DoSepK=T KAlg= 1 I1Cent= 0 FoldK=F
 FoFJK:  IHMeth= 1 ICntrl=     0 DoSepK=T KAlg= 1 I1Cent= 0 FoldK=F
          IDoAtm=111111
 NEqPCM:  Using equilibrium solvation (IEInf=0, Eps=  78.3553, EpsInf=   1.7778)
          Differentiating once with respect to electric field.
                with respect to dipole field.
          Differentiating once with respect to nuclear coordinates.
          There are     1 degrees of freedom in the 1st order CPHF.  IDoFFX=0.
 FoFJK:  IHMeth= 1 ICntrl=     0 DoSepK=T KAlg= 1 I1Cent= 0 FoldK=F
 LinEq1:  Iter=  0 NonCon=     1 RMS=4.28D-02 Max=5.93D-01
 AX will form     1 AO Fock derivatives at one time.
 FoFJK:  IHMeth= 1 ICntrl=     0 DoSepK=T KAlg= 1 I1Cent= 0 FoldK=F
 LinEq1:  Iter=  1 NonCon=     1 RMS=8.67D-03 Max=9.21D-02
 FoFJK:  IHMeth= 1 ICntrl=     0 DoSepK=T KAlg= 1 I1Cent= 0 FoldK=F
 LinEq1:  Iter=  2 NonCon=     1 RMS=4.70D-03 Max=5.85D-02
 FoFJK:  IHMeth= 1 ICntrl=     0 DoSepK=T KAlg= 1 I1Cent= 0 FoldK=F
 LinEq1:  Iter=  3 NonCon=     1 RMS=1.71D-03 Max=1.49D-02
 FoFJK:  IHMeth= 1 ICntrl=     0 DoSepK=T KAlg= 1 I1Cent= 0 FoldK=F
 LinEq1:  Iter=  4 NonCon=     1 RMS=7.12D-04 Max=6.54D-03
 FoFJK:  IHMeth= 1 ICntrl=     0 DoSepK=T KAlg= 1 I1Cent= 0 FoldK=F
 LinEq1:  Iter=  5 NonCon=     1 RMS=1.98D-04 Max=1.29D-03
 FoFJK:  IHMeth= 1 ICntrl=     0 DoSepK=T KAlg= 1 I1Cent= 0 FoldK=F
 LinEq1:  Iter=  6 NonCon=     1 RMS=3.63D-05 Max=2.95D-04
 FoFJK:  IHMeth= 1 ICntrl=     0 DoSepK=T KAlg= 1 I1Cent= 0 FoldK=F
 LinEq1:  Iter=  7 NonCon=     1 RMS=7.35D-06 Max=4.75D-05
 FoFJK:  IHMeth= 1 ICntrl=     0 DoSepK=T KAlg= 1 I1Cent= 0 FoldK=F
 LinEq1:  Iter=  8 NonCon=     1 RMS=1.18D-06 Max=8.17D-06
 FoFJK:  IHMeth= 1 ICntrl=     0 DoSepK=T KAlg= 1 I1Cent= 0 FoldK=F
 LinEq1:  Iter=  9 NonCon=     1 RMS=1.50D-07 Max=1.18D-06
 FoFJK:  IHMeth= 1 ICntrl=     0 DoSepK=T KAlg= 1 I1Cent= 0 FoldK=F
 LinEq1:  Iter= 10 NonCon=     1 RMS=1.56D-08 Max=1.17D-07
 FoFJK:  IHMeth= 1 ICntrl=     0 DoSepK=T KAlg= 1 I1Cent= 0 FoldK=F
 LinEq1:  Iter= 11 NonCon=     1 RMS=1.28D-09 Max=7.77D-09
 FoFJK:  IHMeth= 1 ICntrl=     0 DoSepK=T KAlg= 1 I1Cent= 0 FoldK=F
 LinEq1:  Iter= 12 NonCon=     1 RMS=1.55D-10 Max=1.16D-09
 FoFJK:  IHMeth= 1 ICntrl=     0 DoSepK=T KAlg= 1 I1Cent= 0 FoldK=F
 LinEq1:  Iter= 13 NonCon=     0 RMS=2.50D-11 Max=4.24D-10
 Linear equations converged to 1.000D-10 1.000D-09 after    13 iterations.
 FoFJK:  IHMeth= 1 ICntrl=     0 DoSepK=T KAlg= 1 I1Cent= 0 FoldK=F
 End of Minotr Frequency-dependent properties file   721 does not exist.
 End of Minotr Frequency-dependent properties file   722 does not exist.

 **********************************************************************

            Population analysis using the SCF density.

 **********************************************************************

 Alpha  occ. eigenvalues --  -19.19329 -14.43373 -10.36966  -1.10698  -0.98213
 Alpha  occ. eigenvalues --   -0.69457  -0.61568  -0.54367  -0.48050  -0.47022
 Alpha  occ. eigenvalues --   -0.33319  -0.32468
 Alpha virt. eigenvalues --    0.07902   0.14339   0.17187   0.22914   0.31449
 Alpha virt. eigenvalues --    0.40533   0.59201   0.60415   0.71061   0.72817
 Alpha virt. eigenvalues --    0.75599   0.78340   0.88952   0.90586   0.91394
 Alpha virt. eigenvalues --    0.92541   1.05575   1.12634   1.27760   1.33821
 Alpha virt. eigenvalues --    1.40268   1.45192   1.56698   1.57382   1.82062
 Alpha virt. eigenvalues --    1.88935   1.90559   2.02979   2.07472   2.15207
 Alpha virt. eigenvalues --    2.18670   2.19805   2.33770   2.43324   2.55730
 Alpha virt. eigenvalues --    2.58695   2.68611   2.79766   2.81951   2.91471
 Alpha virt. eigenvalues --    3.04273   3.07445   3.30427   3.50966   3.70617
 Alpha virt. eigenvalues --    3.92523   4.01079   4.44810
          Condensed to atoms (all electrons):
              1          2          3          4          5          6
     1  C    4.365439   0.287107   0.587789  -0.012329  -0.011707   0.386215
     2  N    0.287107   6.818457  -0.085685   0.326031   0.335152  -0.104626
     3  O    0.587789  -0.085685   8.076804   0.004988   0.002699  -0.053452
     4  H   -0.012329   0.326031   0.004988   0.393193  -0.019600   0.006378
     5  H   -0.011707   0.335152   0.002699  -0.019600   0.381784   0.001754
     6  H    0.386215  -0.104626  -0.053452   0.006378   0.001754   0.662891
 Mulliken atomic charges:
              1
     1  C    0.397485
     2  N   -0.576436
     3  O   -0.533143
     4  H    0.301338
     5  H    0.309917
     6  H    0.100840
 Sum of Mulliken atomic charges =   0.00000
 Mulliken charges with hydrogens summed into heavy atoms:
              1
     1  C    0.498325
     2  N    0.034818
     3  O   -0.533143
 Sum of Mulliken charges with hydrogens summed into heavy atoms =   0.00000
 Electronic spatial extent (au):  <R**2>=            147.1096
 Charge=              0.0000 electrons
 Dipole moment (field-independent basis, Debye):
    X=              4.7637    Y=              1.0055    Z=              0.0008  Tot=              4.8687
 Quadrupole moment (field-independent basis, Debye-Ang):
   XX=            -17.2946   YY=            -14.6289   ZZ=            -18.4238
   XY=             -1.2187   XZ=              0.0012   YZ=             -0.0001
 Traceless Quadrupole moment (field-independent basis, Debye-Ang):
   XX=             -0.5121   YY=              2.1535   ZZ=             -1.6414
   XY=             -1.2187   XZ=              0.0012   YZ=             -0.0001
 Octapole moment (field-independent basis, Debye-Ang**2):
  XXX=             15.4192  YYY=             -2.0401  ZZZ=              0.0004  XYY=              3.3500
  XXY=              1.0503  XXZ=              0.0025  XZZ=             -1.1290  YZZ=             -0.2432
  YYZ=              0.0006  XYZ=              0.0000
 Hexadecapole moment (field-independent basis, Debye-Ang**3):
 XXXX=           -105.1742 YYYY=            -31.1915 ZZZZ=            -15.5230 XXXY=              2.4955
 XXXZ=              0.0027 YYYX=             -3.3311 YYYZ=             -0.0006 ZZZX=             -0.0010
 ZZZY=             -0.0002 XXYY=            -22.1927 XXZZ=            -23.8100 YYZZ=             -8.9771
 XXYZ=              0.0002 YYXZ=              0.0002 ZZXY=              0.2491
 N-N= 7.053381243479D+01 E-N=-5.389884781286D+02  KE= 1.682213731815D+02
 D1PCM: PCM CHGder 1st derivatives, ID1Alg=3 FixD1E=F DoIter=F DoCFld=F I1PDM=6.
 Calling FoFJK, ICntrl=      5127 FMM=F ISym2X=0 I1Cent= 0 IOpClX= 0 NMat=1 NMatS=1 NMatT=0.
 FoFJK:  IHMeth= 1 ICntrl=  5127 DoSepK=T KAlg= 1 I1Cent= 0 FoldK=F
 -------------------------------------------------------------------
 Center     Atomic                   Forces (Hartrees/Bohr)
 Number     Number              X              Y              Z
 -------------------------------------------------------------------
      1        6           0.085189734    0.111047442    0.000012080
      2        7           0.042845274   -0.039147221   -0.000015105
      3        8          -0.103178571   -0.064263917   -0.000004623
      4        1           0.001396489    0.011989393    0.000004605
      5        1          -0.011985759   -0.005816117    0.000003958
      6        1          -0.014267167   -0.013809580   -0.000000914
 -------------------------------------------------------------------
 Cartesian Forces:  Max     0.111047442 RMS     0.046218175

 GradGradGradGradGradGradGradGradGradGradGradGradGradGradGradGradGradGrad
 Berny optimization.
 Search for a local minimum.
 Step number   1 out of a maximum of    2
 All quantities printed in internal units (Hartrees-Bohrs-Radians)
 Second derivative matrix not updated -- first step.
 The second derivative matrix:
                          X1        Y1        Z1        X2        Y2
           X1           1.25302
           Y1           0.20091   0.85400
           Z1           0.00002   0.00002   0.13604
           X2          -0.47536   0.13148   0.00002   0.94936
           Y2           0.13846  -0.24086  -0.00001  -0.03367   0.87678
           Z2           0.00000  -0.00001  -0.08001   0.00010  -0.00001
           X3          -0.68237  -0.33674  -0.00002  -0.00869  -0.01952
           Y3          -0.34359  -0.32150  -0.00001   0.01460   0.03278
           Z3          -0.00002  -0.00002  -0.04378   0.00000   0.00001
           X4           0.01313   0.02949  -0.00001  -0.12810   0.04333
           Y4           0.00138   0.00309   0.00000   0.03344  -0.44249
           Z4           0.00000   0.00000   0.01706  -0.00002   0.00008
           X5          -0.00753  -0.01691  -0.00001  -0.34923  -0.15562
           Y5           0.01087   0.02442   0.00001  -0.14540  -0.22523
           Z5           0.00000   0.00000   0.01388  -0.00010  -0.00006
           X6          -0.10088  -0.00822   0.00000   0.01203   0.02701
           Y6          -0.00804  -0.31915   0.00000  -0.00044  -0.00099
           Z6           0.00000   0.00000  -0.04319   0.00000   0.00000
                          Z2        X3        Y3        Z3        X4
           Z2           0.16689
           X3           0.00000   0.67445
           Y3           0.00000   0.35688   0.28770
           Z3           0.01382   0.00002   0.00001   0.02072
           X4          -0.00002   0.00000   0.00000   0.00000   0.09044
           Y4           0.00005   0.00000   0.00000   0.00000  -0.03739
           Z4          -0.05759   0.00000   0.00000  -0.00714   0.00002
           X5          -0.00008   0.00000   0.00000   0.00000   0.02454
           Y5          -0.00004   0.00000   0.00000   0.00000  -0.03543
           Z5          -0.05532   0.00000   0.00000   0.00725   0.00001
           X6           0.00000   0.01661  -0.02789   0.00000   0.00000
           Y6           0.00000  -0.00061   0.00103   0.00000   0.00000
           Z6           0.01220   0.00000   0.00000   0.00913   0.00000
                          Y4        Z4        X5        Y5        Z5
           Y4           0.44311
           Z4          -0.00006   0.02852
           X5           0.00257   0.00001   0.33222
           Y5          -0.00372  -0.00001   0.16996   0.20453
           Z5           0.00000   0.01219   0.00009   0.00005   0.02907
           X6           0.00000   0.00000   0.00000   0.00000   0.00000
           Y6           0.00000   0.00000   0.00000   0.00000   0.00000
           Z6           0.00000   0.00696   0.00000   0.00000  -0.00707
                          X6        Y6        Z6
           X6           0.07225
           Y6           0.00909   0.31912
           Z6           0.00000   0.00000   0.02196
     Eigenvalues ---    0.02677   0.04610   0.08745   0.09003   0.14836
     Eigenvalues ---    0.19305   0.23627   0.35504   0.65476   1.09663
     Eigenvalues ---    1.39330   2.11093
 Angle between quadratic step and forces=  54.95 degrees.
 Linear search not attempted -- first point.
 TrRot=  0.004110  0.004672 -0.000009 -0.001328  0.000007 -0.001328
 Variable       Old X    -DE/DX   Delta X   Delta X   Delta X     New X
                                 (Linear)    (Quad)   (Total)
    X1       -0.28658   0.08519   0.00000   0.02879   0.03509  -0.25149
    Y1        0.73560   0.11105   0.00000   0.08674   0.09209   0.82769
    Z1        0.00000   0.00001   0.00000   0.00000   0.00000   0.00000
    X2        2.05497   0.04285   0.00000   0.06123   0.06442   2.11938
    Y2       -0.30700  -0.03915   0.00000  -0.03678  -0.03773  -0.34473
    Z2       -0.00003  -0.00002   0.00000  -0.00006  -0.00009  -0.00011
    X3       -2.29313  -0.10318   0.00000  -0.06248  -0.05965  -2.35278
    Y3       -0.45931  -0.06426   0.00000  -0.02778  -0.01685  -0.47616
    Z3       -0.00007   0.00000   0.00000   0.00001   0.00001  -0.00005
    X4        2.25554   0.00140   0.00000   0.04012   0.03829   2.29382
    Y4       -2.21974   0.01199   0.00000  -0.01251  -0.01392  -2.23366
    Z4        0.00025   0.00000   0.00000   0.00006   0.00004   0.00029
    X5        3.63325  -0.01199   0.00000   0.05030   0.05629   3.68954
    Y5        0.78607  -0.00582   0.00000  -0.07239  -0.07751   0.70856
    Z5        0.00043   0.00000   0.00000   0.00008   0.00004   0.00047
    X6       -0.20903  -0.01427   0.00000  -0.14623  -0.13443  -0.34346
    Y6        2.84362  -0.01381   0.00000   0.04831   0.05392   2.89754
    Z6        0.00002   0.00000   0.00000   0.00000   0.00000   0.00001
         Item               Value     Threshold  Converged?
 Maximum Force            0.111047     0.000450     NO 
 RMS     Force            0.046218     0.000300     NO 
 Maximum Displacement     0.134432     0.001800     NO 
 RMS     Displacement     0.053199     0.001200     NO 
 Predicted change in Energy=-1.276131D-02
 GradGradGradGradGradGradGradGradGradGradGradGradGradGradGradGradGradGrad

 1\1\GINC-CLODOMIRA\Force\RTD-CAM-B3LYP-FC\6-31G(d,p)\C1H3N1O1\DIEGOA\3
 1-Oct-2019\0\\# cam-b3lyp/6-31G** force nosymm td(root=1,nstates=10) S
 CRF=PCM\\Title\\0,1\C,-0.151653,0.389263,0.000002\N,1.087441,-0.162459
 ,-0.000014\O,-1.213471,-0.243059,-0.000035\H,1.193578,-1.174635,0.0001
 33\H,1.922634,0.415969,0.000226\H,-0.110613,1.504779,0.00001\\Version=
 EM64L-G09RevA.01\HF=-169.8331141\RMSD=3.424e-09\RMSF=4.622e-02\Dipole=
 1.1511967,0.1770168,0.0003071\PG=C01 [X(C1H3N1O1)]\\@


 THOSE WITH THE GOLD MAKE THE RULES.

             -- PETER'S GOLDEN RULE
 Job cpu time:  0 days  0 hours  1 minutes 59.0 seconds.
 File lengths (MBytes):  RWF=     23 Int=      0 D2E=      0 Chk=      4 Scr=      1
 Normal termination of Gaussian 09 at Thu Oct 31 12:24:58 2019.
