Title                                                                   
Force     RTD-PBEPBE-FC                                               6-31G(d,p)          
Number of atoms                            I                6
Info1-9                                    I   N=           9
          14          14           0           0           0         100
           5         218         901
Charge                                     I                0
Multiplicity                               I                1
Number of electrons                        I               24
Number of alpha electrons                  I               12
Number of beta electrons                   I               12
Number of basis functions                  I               60
Number of independent functions            I               60
Number of point charges in /Mol/           I                0
Number of translation vectors              I                0
Atomic numbers                             I   N=           6
           6           7           8           1           1           1
Nuclear charges                            R   N=           6
  6.00000000E+00  7.00000000E+00  8.00000000E+00  1.00000000E+00  1.00000000E+00
  1.00000000E+00
Current cartesian coordinates              R   N=          18
 -2.86582637E-01  7.35600464E-01  3.77945227E-06  2.05496568E+00 -3.07003018E-01
 -2.64561659E-05 -2.29312786E+00 -4.59314944E-01 -6.61404147E-05  2.25553554E+00
 -2.21973846E+00  2.51333576E-04  3.63325171E+00  7.86067490E-01  4.27078106E-04
 -2.09028277E-01  2.84362020E+00  1.88972613E-05
Force Field                                I                0
Int Atom Types                             I   N=           6
           0           0           0           0           0           0
MM charges                                 R   N=           6
  0.00000000E+00  0.00000000E+00  0.00000000E+00  0.00000000E+00  0.00000000E+00
  0.00000000E+00
Integer atomic weights                     I   N=           6
          12          14          16           1           1           1
Real atomic weights                        R   N=           6
  1.20000000E+01  1.40030740E+01  1.59949146E+01  1.00782504E+00  1.00782504E+00
  1.00782504E+00
Atom fragment info                         I   N=           6
           0           0           0           0           0           0
Atom residue num                           I   N=           6
           0           0           0           0           0           0
Nuclear spins                              I   N=           6
           0           2           0           1           1           1
Nuclear ZEff                               R   N=           6
 -3.60000000E+00 -4.55000000E+00 -5.60000000E+00 -1.00000000E+00 -1.00000000E+00
 -1.00000000E+00
Nuclear QMom                               R   N=           6
  0.00000000E+00  2.04400000E+00  0.00000000E+00  0.00000000E+00  0.00000000E+00
  0.00000000E+00
Nuclear GFac                               R   N=           6
  0.00000000E+00  4.03761000E-01  0.00000000E+00  2.79284600E+00  2.79284600E+00
  2.79284600E+00
MicOpt                                     I   N=           6
          -1          -1          -1          -1          -1          -1
Number of contracted shells                I               21
Number of primitive shells                 I               48
Pure/Cartesian d shells                    I                1
Pure/Cartesian f shells                    I                0
Highest angular momentum                   I                2
Largest degree of contraction              I                6
Shell types                                I   N=          21
           0          -1          -1           2           0          -1
          -1           2           0          -1          -1           2
           0           0           1           0           0           1
           0           0           1
Number of primitives per shell             I   N=          21
           6           3           1           1           6           3
           1           1           6           3           1           1
           3           1           1           3           1           1
           3           1           1
Shell to atom map                          I   N=          21
           1           1           1           1           2           2
           2           2           3           3           3           3
           4           4           4           5           5           5
           6           6           6
Primitive exponents                        R   N=          48
  3.04752488E+03  4.57369518E+02  1.03948685E+02  2.92101553E+01  9.28666296E+00
  3.16392696E+00  7.86827235E+00  1.88128854E+00  5.44249258E-01  1.68714478E-01
  8.00000000E-01  4.17351146E+03  6.27457911E+02  1.42902093E+02  4.02343293E+01
  1.28202129E+01  4.39043701E+00  1.16263619E+01  2.71627981E+00  7.72218397E-01
  2.12031498E-01  8.00000000E-01  5.48467166E+03  8.25234946E+02  1.88046958E+02
  5.29645000E+01  1.68975704E+01  5.79963534E+00  1.55396162E+01  3.59993359E+00
  1.01376175E+00  2.70005823E-01  8.00000000E-01  1.87311370E+01  2.82539436E+00
  6.40121692E-01  1.61277759E-01  1.10000000E+00  1.87311370E+01  2.82539436E+00
  6.40121692E-01  1.61277759E-01  1.10000000E+00  1.87311370E+01  2.82539436E+00
  6.40121692E-01  1.61277759E-01  1.10000000E+00
Contraction coefficients                   R   N=          48
  1.83473713E-03  1.40373228E-02  6.88426223E-02  2.32184443E-01  4.67941348E-01
  3.62311985E-01 -1.19332420E-01 -1.60854152E-01  1.14345644E+00  1.00000000E+00
  1.00000000E+00  1.83477216E-03  1.39946270E-02  6.85865518E-02  2.32240873E-01
  4.69069948E-01  3.60455199E-01 -1.14961182E-01 -1.69117479E-01  1.14585195E+00
  1.00000000E+00  1.00000000E+00  1.83107443E-03  1.39501722E-02  6.84450781E-02
  2.32714336E-01  4.70192898E-01  3.58520853E-01 -1.10777550E-01 -1.48026263E-01
  1.13076702E+00  1.00000000E+00  1.00000000E+00  3.34946043E-02  2.34726953E-01
  8.13757326E-01  1.00000000E+00  1.00000000E+00  3.34946043E-02  2.34726953E-01
  8.13757326E-01  1.00000000E+00  1.00000000E+00  3.34946043E-02  2.34726953E-01
  8.13757326E-01  1.00000000E+00  1.00000000E+00
P(S=P) Contraction coefficients            R   N=          48
  0.00000000E+00  0.00000000E+00  0.00000000E+00  0.00000000E+00  0.00000000E+00
  0.00000000E+00  6.89990666E-02  3.16423961E-01  7.44308291E-01  1.00000000E+00
  0.00000000E+00  0.00000000E+00  0.00000000E+00  0.00000000E+00  0.00000000E+00
  0.00000000E+00  0.00000000E+00  6.75797439E-02  3.23907296E-01  7.40895140E-01
  1.00000000E+00  0.00000000E+00  0.00000000E+00  0.00000000E+00  0.00000000E+00
  0.00000000E+00  0.00000000E+00  0.00000000E+00  7.08742682E-02  3.39752839E-01
  7.27158577E-01  1.00000000E+00  0.00000000E+00  0.00000000E+00  0.00000000E+00
  0.00000000E+00  0.00000000E+00  0.00000000E+00  0.00000000E+00  0.00000000E+00
  0.00000000E+00  0.00000000E+00  0.00000000E+00  0.00000000E+00  0.00000000E+00
  0.00000000E+00  0.00000000E+00  0.00000000E+00
Coordinates of each shell                  R   N=          63
 -2.86582637E-01  7.35600464E-01  3.77945227E-06 -2.86582637E-01  7.35600464E-01
  3.77945227E-06 -2.86582637E-01  7.35600464E-01  3.77945227E-06 -2.86582637E-01
  7.35600464E-01  3.77945227E-06  2.05496568E+00 -3.07003018E-01 -2.64561659E-05
  2.05496568E+00 -3.07003018E-01 -2.64561659E-05  2.05496568E+00 -3.07003018E-01
 -2.64561659E-05  2.05496568E+00 -3.07003018E-01 -2.64561659E-05 -2.29312786E+00
 -4.59314944E-01 -6.61404147E-05 -2.29312786E+00 -4.59314944E-01 -6.61404147E-05
 -2.29312786E+00 -4.59314944E-01 -6.61404147E-05 -2.29312786E+00 -4.59314944E-01
 -6.61404147E-05  2.25553554E+00 -2.21973846E+00  2.51333576E-04  2.25553554E+00
 -2.21973846E+00  2.51333576E-04  2.25553554E+00 -2.21973846E+00  2.51333576E-04
  3.63325171E+00  7.86067490E-01  4.27078106E-04  3.63325171E+00  7.86067490E-01
  4.27078106E-04  3.63325171E+00  7.86067490E-01  4.27078106E-04 -2.09028277E-01
  2.84362020E+00  1.88972613E-05 -2.09028277E-01  2.84362020E+00  1.88972613E-05
 -2.09028277E-01  2.84362020E+00  1.88972613E-05
Density Number of contracted shells        I               72
Density Number of primitive shells         I               72
Density Pure/Cartesian d shells            I                0
Density Pure/Cartesian f shells            I                0
Density Highest angular momentum           I                3
Density Largest degree of contraction      I                1
Density Shell types                        I   N=          72
           0           0           0           0          -1          -2
          -1          -2          -1          -2          -1          -2
          -3          -1          -2          -3           0           0
           0           0          -1          -2          -1          -2
          -1          -2          -1          -2          -3          -1
          -2          -3           0           0           0           0
          -1          -2          -1          -2          -1          -2
          -1          -2          -3          -1          -2          -3
           0           0          -1          -2          -1          -2
          -1          -2           0           0          -1          -2
          -1          -2          -1          -2           0           0
          -1          -2          -1          -2          -1          -2
Density Number of primitives per shell     I   N=          72
           1           1           1           1           1           1
           1           1           1           1           1           1
           1           1           1           1           1           1
           1           1           1           1           1           1
           1           1           1           1           1           1
           1           1           1           1           1           1
           1           1           1           1           1           1
           1           1           1           1           1           1
           1           1           1           1           1           1
           1           1           1           1           1           1
           1           1           1           1           1           1
           1           1           1           1           1           1
Density Shell to atom map                  I   N=          72
           1           1           1           1           1           1
           1           1           1           1           1           1
           1           1           1           1           2           2
           2           2           2           2           2           2
           2           2           2           2           2           2
           2           2           3           3           3           3
           3           3           3           3           3           3
           3           3           3           3           3           3
           4           4           4           4           4           4
           4           4           5           5           5           5
           5           5           5           5           6           6
           6           6           6           6           6           6
Density Primitive exponents                R   N=          72
  6.09504976E+03  9.14739036E+02  2.07897370E+02  5.84203106E+01  1.70961976E+01
  1.70961976E+01  6.32785392E+00  6.32785392E+00  3.76257708E+00  3.76257708E+00
  1.31969604E+00  1.31969604E+00  1.31969604E+00  3.37428956E-01  3.37428956E-01
  3.37428956E-01  8.34702292E+03  1.25491582E+03  2.85804186E+02  8.04686586E+01
  2.44174064E+01  2.44174064E+01  8.78087402E+00  8.78087402E+00  5.43255961E+00
  5.43255961E+00  1.57197292E+00  1.57197292E+00  1.57197292E+00  4.24062995E-01
  4.24062995E-01  4.24062995E-01  1.09693433E+04  1.65046989E+03  3.76093916E+02
  1.05929000E+02  3.24087494E+01  3.24087494E+01  1.15992707E+01  1.15992707E+01
  7.19986717E+00  7.19986717E+00  1.80112121E+00  1.80112121E+00  1.80112121E+00
  5.40011645E-01  5.40011645E-01  5.40011645E-01  3.74622739E+01  5.65078873E+00
  2.20000000E+00  2.20000000E+00  1.28024338E+00  1.28024338E+00  3.22555518E-01
  3.22555518E-01  3.74622739E+01  5.65078873E+00  2.20000000E+00  2.20000000E+00
  1.28024338E+00  1.28024338E+00  3.22555518E-01  3.22555518E-01  3.74622739E+01
  5.65078873E+00  2.20000000E+00  2.20000000E+00  1.28024338E+00  1.28024338E+00
  3.22555518E-01  3.22555518E-01
Density Contraction coefficients           R   N=          72
  1.00000000E+00  1.00000000E+00  1.00000000E+00  1.00000000E+00  1.00000000E+00
  1.00000000E+00  1.00000000E+00  1.00000000E+00  1.00000000E+00  1.00000000E+00
  1.00000000E+00  1.00000000E+00  1.00000000E+00  1.00000000E+00  1.00000000E+00
  1.00000000E+00  1.00000000E+00  1.00000000E+00  1.00000000E+00  1.00000000E+00
  1.00000000E+00  1.00000000E+00  1.00000000E+00  1.00000000E+00  1.00000000E+00
  1.00000000E+00  1.00000000E+00  1.00000000E+00  1.00000000E+00  1.00000000E+00
  1.00000000E+00  1.00000000E+00  1.00000000E+00  1.00000000E+00  1.00000000E+00
  1.00000000E+00  1.00000000E+00  1.00000000E+00  1.00000000E+00  1.00000000E+00
  1.00000000E+00  1.00000000E+00  1.00000000E+00  1.00000000E+00  1.00000000E+00
  1.00000000E+00  1.00000000E+00  1.00000000E+00  1.00000000E+00  1.00000000E+00
  1.00000000E+00  1.00000000E+00  1.00000000E+00  1.00000000E+00  1.00000000E+00
  1.00000000E+00  1.00000000E+00  1.00000000E+00  1.00000000E+00  1.00000000E+00
  1.00000000E+00  1.00000000E+00  1.00000000E+00  1.00000000E+00  1.00000000E+00
  1.00000000E+00  1.00000000E+00  1.00000000E+00  1.00000000E+00  1.00000000E+00
  1.00000000E+00  1.00000000E+00
Density P(S=P) Contraction coefficients    R   N=          72
  0.00000000E+00  0.00000000E+00  0.00000000E+00  0.00000000E+00  1.00000000E+00
  0.00000000E+00  1.00000000E+00  0.00000000E+00  1.00000000E+00  0.00000000E+00
  1.00000000E+00  0.00000000E+00  0.00000000E+00  1.00000000E+00  0.00000000E+00
  0.00000000E+00  0.00000000E+00  0.00000000E+00  0.00000000E+00  0.00000000E+00
  1.00000000E+00  0.00000000E+00  1.00000000E+00  0.00000000E+00  1.00000000E+00
  0.00000000E+00  1.00000000E+00  0.00000000E+00  0.00000000E+00  1.00000000E+00
  0.00000000E+00  0.00000000E+00  0.00000000E+00  0.00000000E+00  0.00000000E+00
  0.00000000E+00  1.00000000E+00  0.00000000E+00  1.00000000E+00  0.00000000E+00
  1.00000000E+00  0.00000000E+00  1.00000000E+00  0.00000000E+00  0.00000000E+00
  1.00000000E+00  0.00000000E+00  0.00000000E+00  0.00000000E+00  0.00000000E+00
  1.00000000E+00  0.00000000E+00  1.00000000E+00  0.00000000E+00  1.00000000E+00
  0.00000000E+00  0.00000000E+00  0.00000000E+00  1.00000000E+00  0.00000000E+00
  1.00000000E+00  0.00000000E+00  1.00000000E+00  0.00000000E+00  0.00000000E+00
  0.00000000E+00  1.00000000E+00  0.00000000E+00  1.00000000E+00  0.00000000E+00
  1.00000000E+00  0.00000000E+00
Density Coordinates of each shell          R   N=         216
 -2.86582637E-01  7.35600464E-01  3.77945227E-06 -2.86582637E-01  7.35600464E-01
  3.77945227E-06 -2.86582637E-01  7.35600464E-01  3.77945227E-06 -2.86582637E-01
  7.35600464E-01  3.77945227E-06 -2.86582637E-01  7.35600464E-01  3.77945227E-06
 -2.86582637E-01  7.35600464E-01  3.77945227E-06 -2.86582637E-01  7.35600464E-01
  3.77945227E-06 -2.86582637E-01  7.35600464E-01  3.77945227E-06 -2.86582637E-01
  7.35600464E-01  3.77945227E-06 -2.86582637E-01  7.35600464E-01  3.77945227E-06
 -2.86582637E-01  7.35600464E-01  3.77945227E-06 -2.86582637E-01  7.35600464E-01
  3.77945227E-06 -2.86582637E-01  7.35600464E-01  3.77945227E-06 -2.86582637E-01
  7.35600464E-01  3.77945227E-06 -2.86582637E-01  7.35600464E-01  3.77945227E-06
 -2.86582637E-01  7.35600464E-01  3.77945227E-06  2.05496568E+00 -3.07003018E-01
 -2.64561659E-05  2.05496568E+00 -3.07003018E-01 -2.64561659E-05  2.05496568E+00
 -3.07003018E-01 -2.64561659E-05  2.05496568E+00 -3.07003018E-01 -2.64561659E-05
  2.05496568E+00 -3.07003018E-01 -2.64561659E-05  2.05496568E+00 -3.07003018E-01
 -2.64561659E-05  2.05496568E+00 -3.07003018E-01 -2.64561659E-05  2.05496568E+00
 -3.07003018E-01 -2.64561659E-05  2.05496568E+00 -3.07003018E-01 -2.64561659E-05
  2.05496568E+00 -3.07003018E-01 -2.64561659E-05  2.05496568E+00 -3.07003018E-01
 -2.64561659E-05  2.05496568E+00 -3.07003018E-01 -2.64561659E-05  2.05496568E+00
 -3.07003018E-01 -2.64561659E-05  2.05496568E+00 -3.07003018E-01 -2.64561659E-05
  2.05496568E+00 -3.07003018E-01 -2.64561659E-05  2.05496568E+00 -3.07003018E-01
 -2.64561659E-05 -2.29312786E+00 -4.59314944E-01 -6.61404147E-05 -2.29312786E+00
 -4.59314944E-01 -6.61404147E-05 -2.29312786E+00 -4.59314944E-01 -6.61404147E-05
 -2.29312786E+00 -4.59314944E-01 -6.61404147E-05 -2.29312786E+00 -4.59314944E-01
 -6.61404147E-05 -2.29312786E+00 -4.59314944E-01 -6.61404147E-05 -2.29312786E+00
 -4.59314944E-01 -6.61404147E-05 -2.29312786E+00 -4.59314944E-01 -6.61404147E-05
 -2.29312786E+00 -4.59314944E-01 -6.61404147E-05 -2.29312786E+00 -4.59314944E-01
 -6.61404147E-05 -2.29312786E+00 -4.59314944E-01 -6.61404147E-05 -2.29312786E+00
 -4.59314944E-01 -6.61404147E-05 -2.29312786E+00 -4.59314944E-01 -6.61404147E-05
 -2.29312786E+00 -4.59314944E-01 -6.61404147E-05 -2.29312786E+00 -4.59314944E-01
 -6.61404147E-05 -2.29312786E+00 -4.59314944E-01 -6.61404147E-05  2.25553554E+00
 -2.21973846E+00  2.51333576E-04  2.25553554E+00 -2.21973846E+00  2.51333576E-04
  2.25553554E+00 -2.21973846E+00  2.51333576E-04  2.25553554E+00 -2.21973846E+00
  2.51333576E-04  2.25553554E+00 -2.21973846E+00  2.51333576E-04  2.25553554E+00
 -2.21973846E+00  2.51333576E-04  2.25553554E+00 -2.21973846E+00  2.51333576E-04
  2.25553554E+00 -2.21973846E+00  2.51333576E-04  3.63325171E+00  7.86067490E-01
  4.27078106E-04  3.63325171E+00  7.86067490E-01  4.27078106E-04  3.63325171E+00
  7.86067490E-01  4.27078106E-04  3.63325171E+00  7.86067490E-01  4.27078106E-04
  3.63325171E+00  7.86067490E-01  4.27078106E-04  3.63325171E+00  7.86067490E-01
  4.27078106E-04  3.63325171E+00  7.86067490E-01  4.27078106E-04  3.63325171E+00
  7.86067490E-01  4.27078106E-04 -2.09028277E-01  2.84362020E+00  1.88972613E-05
 -2.09028277E-01  2.84362020E+00  1.88972613E-05 -2.09028277E-01  2.84362020E+00
  1.88972613E-05 -2.09028277E-01  2.84362020E+00  1.88972613E-05 -2.09028277E-01
  2.84362020E+00  1.88972613E-05 -2.09028277E-01  2.84362020E+00  1.88972613E-05
 -2.09028277E-01  2.84362020E+00  1.88972613E-05 -2.09028277E-01  2.84362020E+00
  1.88972613E-05
Constraint Structure                       R   N=          18
 -2.86582637E-01  7.35600464E-01  3.77945227E-06  2.05496568E+00 -3.07003018E-01
 -2.64561659E-05 -2.29312786E+00 -4.59314944E-01 -6.61404147E-05  2.25553554E+00
 -2.21973846E+00  2.51333576E-04  3.63325171E+00  7.86067490E-01  4.27078106E-04
 -2.09028277E-01  2.84362020E+00  1.88972613E-05
Num ILSW                                   I              100
ILSW                                       I   N=         100
           0           1           0           0           2           0
           0           0           0           0        1009          -1
           0           0           0           0           0           0
           0           0           1           0           1           0
           1           1           0           0           0           0
           0           0      100000           0          -1           0
           0           0           0           0           0           0
           0           0           0           1           0           0
           0           0           1           0           0           0
           0           0           4          40           0           0
           0           0           0           0           0           0
           0           0           0           0           0           0
           0           0           0           0           0           0
           0           0           0           0           0           0
           0           0           0           0           0           0
           0           0           0           0           0           0
           0           0           0           0
Num RLSW                                   I               40
RLSW                                       R   N=          40
  1.00000000E+00  1.00000000E+00  1.00000000E+00  1.00000000E+00  0.00000000E+00
  0.00000000E+00  0.00000000E+00  1.00000000E+00  0.00000000E+00  0.00000000E+00
  0.00000000E+00  0.00000000E+00  1.00000000E+00  0.00000000E+00  0.00000000E+00
  0.00000000E+00  0.00000000E+00  1.00000000E+00  0.00000000E+00  0.00000000E+00
  0.00000000E+00  0.00000000E+00  1.00000000E+00  0.00000000E+00  0.00000000E+00
  0.00000000E+00  0.00000000E+00  1.00000000E+00  0.00000000E+00  0.00000000E+00
  0.00000000E+00  0.00000000E+00  0.00000000E+00  0.00000000E+00  0.00000000E+00
  0.00000000E+00  0.00000000E+00  0.00000000E+00  1.00000000E+00  1.00000000E+00
MxBond                                     I                3
NBond                                      I   N=           6
           3           3           1           1           1           1
IBond                                      I   N=          18
           2           3           6           1           4           5
           1           0           0           2           0           0
           2           0           0           1           0           0
RBond                                      R   N=          18
  1.41000000E+00  2.00000000E+00  1.00000000E+00  1.41000000E+00  1.00000000E+00
  1.00000000E+00  2.00000000E+00  0.00000000E+00  0.00000000E+00  1.00000000E+00
  0.00000000E+00  0.00000000E+00  1.00000000E+00  0.00000000E+00  0.00000000E+00
  1.00000000E+00  0.00000000E+00  0.00000000E+00
Virial Ratio                               R      2.009341008936401E+00
SCF Energy                                 R     -1.697149113617474E+02
CIS Energy                                 R     -1.694469249242561E+02
Total Energy                               R     -1.694469249242561E+02
Post-SCF wavefunction norm                 R      1.000000000000000E+00
RMS Force                                  R      3.709071290331976E-02
RMS Density                                R      8.034133661518530E-09
External E-field                           R   N=          35
  0.00000000E+00  0.00000000E+00  0.00000000E+00  0.00000000E+00  0.00000000E+00
  0.00000000E+00  0.00000000E+00  0.00000000E+00  0.00000000E+00  0.00000000E+00
  0.00000000E+00  0.00000000E+00  0.00000000E+00  0.00000000E+00  0.00000000E+00
  0.00000000E+00  0.00000000E+00  0.00000000E+00  0.00000000E+00  0.00000000E+00
  0.00000000E+00  0.00000000E+00  0.00000000E+00  0.00000000E+00  0.00000000E+00
  0.00000000E+00  0.00000000E+00  0.00000000E+00  0.00000000E+00  0.00000000E+00
  0.00000000E+00  0.00000000E+00  0.00000000E+00  0.00000000E+00  0.00000000E+00
IOpCl                                      I                0
IROHF                                      I                0
Alpha Orbital Energies                     R   N=          60
 -1.87424497E+01 -1.40291817E+01 -9.99110407E+00 -9.33880047E-01 -8.20536380E-01
 -5.57651806E-01 -4.89286044E-01 -4.17973510E-01 -3.55215302E-01 -3.50143046E-01
 -2.29007344E-01 -2.06105673E-01 -8.67116248E-03  6.93839209E-02  9.58777022E-02
  1.49592879E-01  2.34395303E-01  3.06396824E-01  5.01897757E-01  5.10288332E-01
  6.06264253E-01  6.16147331E-01  6.46434425E-01  6.75329669E-01  7.88841250E-01
  7.94906563E-01  7.98961137E-01  8.14959963E-01  9.33543461E-01  1.01100422E+00
  1.16814216E+00  1.21959516E+00  1.26802800E+00  1.31546158E+00  1.43437656E+00
  1.44999194E+00  1.68141231E+00  1.74348911E+00  1.76356764E+00  1.88480601E+00
  1.92714603E+00  2.00770507E+00  2.04021307E+00  2.05102315E+00  2.19125624E+00
  2.28528190E+00  2.40649182E+00  2.44059164E+00  2.53071242E+00  2.64501668E+00
  2.66327049E+00  2.76147329E+00  2.88768886E+00  2.91956894E+00  3.15162740E+00
  3.35507253E+00  3.54551164E+00  3.76768032E+00  3.85322365E+00  4.29512662E+00
Alpha MO coefficients                      R   N=        3600
  2.40907741E-05  5.68245135E-04 -2.02071975E-05 -6.91413001E-05 -2.75980006E-09
 -2.89853176E-03  2.26658997E-03  1.97120292E-03  7.84537207E-08 -5.78177568E-04
 -1.90736345E-04 -1.16728282E-05 -3.85982232E-04 -2.30955107E-08 -1.28435588E-08
 -5.48212008E-06  2.01276016E-05 -2.52040129E-05  5.31262870E-05 -2.53446194E-09
  1.34584602E-04 -2.65122664E-04 -7.96257599E-04  1.62151651E-09 -1.39664387E-04
  8.93378511E-05 -3.61921033E-06 -1.29228561E-04 -2.23828314E-08 -3.32452287E-08
  9.92500385E-01  2.67574850E-02  9.18745558E-04  5.19714192E-04  2.76800928E-08
  1.37998552E-02  1.30252840E-03  6.73533109E-04  5.23658348E-08 -8.23644201E-03
 -8.47681630E-03 -8.54234793E-03  2.27162263E-04  1.44123060E-08  7.24259204E-09
 -1.77685687E-04 -3.03963958E-04 -3.46108906E-05 -7.91077614E-05  2.64479417E-08
  1.97810831E-04  1.38759987E-05 -9.08565846E-06 -6.07170637E-05 -3.87224875E-08
 -3.47931593E-05 -6.10027736E-04 -1.16755436E-05  3.57625109E-05 -1.39504093E-09
  4.39651540E-05  2.03981466E-04  2.67764974E-04 -1.24249565E-04 -1.81955079E-08
 -5.16269539E-04 -1.39081897E-04  3.31350000E-05  5.24463253E-08  1.03492009E-04
  1.17159471E-04 -1.45992326E-05 -5.83079067E-06 -1.17909276E-08  6.04011297E-09
  9.92290716E-01  3.65347537E-02  6.78935233E-05 -1.27809090E-05  3.38473769E-07
  4.64673348E-03  6.98706200E-05 -4.14266286E-05 -6.07979199E-08 -9.02428373E-03
 -8.95308748E-03 -9.06127846E-03  4.37923449E-05  2.61849843E-08 -1.62191405E-09
 -1.95679669E-06  2.01592498E-05 -2.13367974E-05 -7.00757579E-06  2.96504261E-10
  1.25740646E-05 -7.55811791E-05  3.39515315E-05 -1.34213086E-08 -1.08809886E-04
  2.38538796E-05  4.08865783E-06  9.06555790E-06 -3.51998979E-09 -4.55547783E-09
  2.60158885E-04 -6.20020135E-04  5.33925972E-06 -3.34519225E-05 -3.75108084E-09
  2.62473282E-04 -6.19403112E-04  3.42408455E-05  2.06822189E-05 -4.99430250E-10
 -4.98875109E-05  2.53034534E-05 -5.35254311E-05  7.33984668E-05 -2.70519598E-09
  9.92341561E-01  5.17317349E-02 -1.66575324E-04 -6.45515195E-04 -8.43758052E-08
 -7.22749812E-03 -2.14655525E-03 -2.28393007E-03 -8.43638217E-09 -9.29830513E-03
 -9.99771559E-03 -1.07294736E-02  3.16344909E-04  2.35916429E-08  3.03487060E-08
 -1.68503175E-04 -1.84009640E-04  3.47713645E-04 -2.25857064E-04 -3.72297979E-08
  1.61325270E-03  4.26538089E-04  9.76362721E-04 -1.98897860E-08 -7.43977729E-04
 -4.91104151E-04 -3.48229318E-05  2.41264191E-04  2.20353563E-09  2.64799542E-08
 -6.07296415E-05  3.34211821E-04 -1.55817916E-04 -1.06594569E-04  5.80147726E-11
 -3.00789331E-03 -1.88651485E-03 -9.66644037E-04 -9.23673000E-08 -2.62850187E-04
  1.33747030E-04  4.11242897E-04 -3.69453111E-04 -2.81652433E-08 -1.67323973E-08
  2.74156583E-04  4.39504278E-04 -1.17584480E-04  2.31343337E-04 -4.89625781E-08
 -1.04299942E-04 -1.14436795E-04 -2.07062906E-04 -1.16975554E-05 -1.23792582E-08
 -4.28249136E-04  2.80224562E-03  7.90670641E-05  2.00696565E-04  1.13322580E-09
 -1.29126277E-01  2.52989189E-01 -1.05334566E-01 -1.04317777E-01 -5.44029951E-06
  7.13033363E-02  9.09329454E-03  2.89114074E-02  9.99485699E-07  1.30064159E-02
 -8.52292799E-03 -1.93536927E-02  1.60820077E-02  1.17558670E-06  7.29518444E-07
 -6.29095110E-02  1.28049728E-01 -4.62959490E-02  8.77813746E-03  7.08021822E-06
  1.21968352E-01 -2.72616090E-02 -3.53624653E-03  2.72370397E-06  8.03616313E-03
 -2.18614098E-03 -5.75701772E-03 -2.36529613E-03  4.56726755E-08  4.55651184E-09
 -1.78744430E-01  3.86141707E-01  1.35149962E-01  7.43712558E-02  4.39332954E-06
  3.69714352E-01  5.12689561E-02  2.27635871E-02  1.55656947E-06  6.50125617E-03
 -5.51196365E-03 -6.18028440E-03  9.53581162E-03  4.48540946E-07  2.79907914E-07
  3.12853370E-02  7.76834826E-04 -1.46752043E-03  4.68085678E-03 -5.02037967E-07
  2.77564149E-02  1.71053449E-03 -2.89810551E-03 -1.80743303E-03 -7.26563846E-07
  3.29325369E-02 -1.16075886E-02 -1.70289287E-03 -6.45046773E-03 -1.24694354E-07
 -3.58710965E-02  7.23630986E-02  2.12935453E-01 -8.04890699E-04  4.35984662E-06
  7.54332855E-03  8.16032200E-04  1.27979504E-02  1.80899119E-07  6.16420248E-03
 -1.51707552E-03 -2.72313099E-03 -2.09150957E-02 -3.00431641E-07 -3.96393743E-07
 -1.89558955E-01  3.93183313E-01 -2.05751277E-02  2.17396258E-02  3.12662770E-05
  4.03727251E-01 -1.34607423E-02  1.21056085E-02  1.40215859E-05 -1.81978008E-03
 -1.81512691E-03 -1.50682145E-02 -2.80592210E-03  1.36911377E-06  3.71879862E-07
  8.63052358E-02 -1.92509068E-01 -3.63968948E-02 -3.76755678E-02 -1.55624162E-06
 -1.76470286E-01 -1.73539950E-03 -1.16223647E-02 -2.12963829E-07  1.93800429E-03
 -5.66522210E-04  7.51841979E-04 -2.82392120E-03  2.12649024E-08 -1.24774942E-07
  1.14714439E-01  8.65654953E-03 -1.58134351E-03  1.51800943E-02 -1.63670895E-06
  1.22222232E-01  1.00127100E-02 -1.37360348E-02 -8.95752998E-03 -3.33206917E-06
  2.02126512E-02  2.20384162E-03  2.53993955E-03 -1.92901578E-03  5.26147210E-08
 -1.33980086E-01  2.88561539E-01  1.61793341E-01  1.18301445E-01 -7.95235720E-06
  2.28560172E-01  5.09202825E-02  5.63998590E-02  8.44126504E-07 -7.18787701E-03
 -4.80539602E-03 -9.35345364E-03 -6.23159249E-03 -1.77882699E-06  6.05857757E-07
  4.92887115E-02 -1.06285164E-01 -2.58733219E-01  2.29958166E-01 -4.05410885E-05
 -1.53829796E-01 -1.05096802E-01  9.26955125E-02 -1.94669020E-05  5.54102442E-03
 -1.47831750E-03  2.73448020E-03 -1.02522572E-02 -3.95503523E-06  2.91015603E-06
  6.16493363E-02 -1.42226475E-01  3.98705596E-02  4.14637724E-02 -2.12892199E-06
 -1.60239597E-01  3.28201009E-02  2.75397477E-02 -1.07187893E-06  5.48252724E-03
  2.93861688E-03 -1.93729809E-03  5.74884639E-03 -1.52309744E-07 -5.32371149E-08
 -1.72119951E-01 -6.51734342E-02 -3.62904761E-03 -1.25691252E-02  1.81578391E-06