 Entering Gaussian System, Link 0=g09
 Input=td7.com
 Output=td7.log
 Initial command:
 /home/diegoa/progs/g09/l1.exe /home/diegoa/g09scratch/Gau-22558.inp -scrdir=/home/diegoa/g09scratch/
 Default is to use a total of   4 processors:
                                4 via shared-memory
                                1 via Linda
 Entering Link 1 = /home/diegoa/progs/g09/l1.exe PID=     22560.
  
 Copyright (c) 1988,1990,1992,1993,1995,1998,2003,2009, Gaussian, Inc.
                  All Rights Reserved.
  
 This is part of the Gaussian(R) 09 program.  It is based on
 the Gaussian(R) 03 system (copyright 2003, Gaussian, Inc.),
 the Gaussian(R) 98 system (copyright 1998, Gaussian, Inc.),
 the Gaussian(R) 94 system (copyright 1995, Gaussian, Inc.),
 the Gaussian 92(TM) system (copyright 1992, Gaussian, Inc.),
 the Gaussian 90(TM) system (copyright 1990, Gaussian, Inc.),
 the Gaussian 88(TM) system (copyright 1988, Gaussian, Inc.),
 the Gaussian 86(TM) system (copyright 1986, Carnegie Mellon
 University), and the Gaussian 82(TM) system (copyright 1983,
 Carnegie Mellon University). Gaussian is a federally registered
 trademark of Gaussian, Inc.
  
 This software contains proprietary and confidential information,
 including trade secrets, belonging to Gaussian, Inc.
  
 This software is provided under written license and may be
 used, copied, transmitted, or stored only in accord with that
 written license.
  
 The following legend is applicable only to US Government
 contracts under FAR:
  
                    RESTRICTED RIGHTS LEGEND
  
 Use, reproduction and disclosure by the US Government is
 subject to restrictions as set forth in subparagraphs (a)
 and (c) of the Commercial Computer Software - Restricted
 Rights clause in FAR 52.227-19.
  
 Gaussian, Inc.
 340 Quinnipiac St., Bldg. 40, Wallingford CT 06492
  
  
 ---------------------------------------------------------------
 Warning -- This program may not be used in any manner that
 competes with the business of Gaussian, Inc. or will provide
 assistance to any competitor of Gaussian, Inc.  The licensee
 of this program is prohibited from giving any competitor of
 Gaussian, Inc. access to this program.  By using this program,
 the user acknowledges that Gaussian, Inc. is engaged in the
 business of creating and licensing software in the field of
 computational chemistry and represents and warrants to the
 licensee that it is not a competitor of Gaussian, Inc. and that
 it will not use this program in any manner prohibited above.
 ---------------------------------------------------------------
  

 Cite this work as:
 Gaussian 09, Revision A.01,
 M. J. Frisch, G. W. Trucks, H. B. Schlegel, G. E. Scuseria, 
 M. A. Robb, J. R. Cheeseman, G. Scalmani, V. Barone, B. Mennucci, 
 G. A. Petersson, H. Nakatsuji, M. Caricato, X. Li, H. P. Hratchian, 
 A. F. Izmaylov, J. Bloino, G. Zheng, J. L. Sonnenberg, M. Hada, 
 M. Ehara, K. Toyota, R. Fukuda, J. Hasegawa, M. Ishida, T. Nakajima, 
 Y. Honda, O. Kitao, H. Nakai, T. Vreven, J. A. Montgomery, Jr., 
 J. E. Peralta, F. Ogliaro, M. Bearpark, J. J. Heyd, E. Brothers, 
 K. N. Kudin, V. N. Staroverov, R. Kobayashi, J. Normand, 
 K. Raghavachari, A. Rendell, J. C. Burant, S. S. Iyengar, J. Tomasi, 
 M. Cossi, N. Rega, J. M. Millam, M. Klene, J. E. Knox, J. B. Cross, 
 V. Bakken, C. Adamo, J. Jaramillo, R. Gomperts, R. E. Stratmann, 
 O. Yazyev, A. J. Austin, R. Cammi, C. Pomelli, J. W. Ochterski, 
 R. L. Martin, K. Morokuma, V. G. Zakrzewski, G. A. Voth, 
 P. Salvador, J. J. Dannenberg, S. Dapprich, A. D. Daniels, 
 O. Farkas, J. B. Foresman, J. V. Ortiz, J. Cioslowski, 
 and D. J. Fox, Gaussian, Inc., Wallingford CT, 2009.
 
 ******************************************
 Gaussian 09:  EM64L-G09RevA.01  8-May-2009
                31-Oct-2019 
 ******************************************
 %chk=td7.chk
 %NProcShared=4
 Will use up to    4 processors via shared memory.
 Default route:  MP2=Direct MaxDisk=1000GB DenFit
 ------------------------------------------------------------
 # pbepbe/6-31G** force nosymm td(root=7,nstates=10) SCRF=PCM
 ------------------------------------------------------------
 1/10=7,30=1,38=1/1,3;
 2/12=2,15=1,17=6,18=5,40=1/2;
 3/5=1,6=6,7=101,11=2,16=1,25=1,30=1,70=2201,71=1,72=1,74=1009,82=47/1,2,8,3;
 4//1;
 5/5=2,38=5/2;
 8/6=1,10=2,107=7,108=10/1;
 9/8=7,15=2,41=10,42=1/14;
 10/5=4,31=1/2;
 6/7=2,8=2,9=2,10=2,18=1/1;
 7/12=6,13=5,14=7,29=1,30=1/1,2,3,16;
 1/10=7,30=1/3;
 99//99;
 -----
 Title
 -----
 Symbolic Z-matrix:
 Charge =  0 Multiplicity = 1
 6                    -0.15165   0.38926   0. 
 7                     1.08744  -0.16246  -0.00001 
 8                    -1.21347  -0.24306  -0.00004 
 1                     1.19358  -1.17464   0.00013 
 1                     1.92263   0.41597   0.00023 
 1                    -0.11061   1.50478   0.00001 
 

 GradGradGradGradGradGradGradGradGradGradGradGradGradGradGradGradGradGrad
 Berny optimization.
 Initialization pass.
 Trust Radius=3.00D-01 FncErr=1.00D-07 GrdErr=1.00D-07
 Number of steps in this run=   2 maximum allowed number of steps=   2.
 GradGradGradGradGradGradGradGradGradGradGradGradGradGradGradGradGradGrad

                          Input orientation:                          
 ---------------------------------------------------------------------
 Center     Atomic      Atomic             Coordinates (Angstroms)
 Number     Number       Type             X           Y           Z
 ---------------------------------------------------------------------
      1          6           0       -0.151653    0.389263    0.000002
      2          7           0        1.087441   -0.162459   -0.000014
      3          8           0       -1.213471   -0.243059   -0.000035
      4          1           0        1.193578   -1.174635    0.000133
      5          1           0        1.922634    0.415969    0.000226
      6          1           0       -0.110613    1.504779    0.000010
 ---------------------------------------------------------------------
                    Distance matrix (angstroms):
                    1          2          3          4          5
     1  C    0.000000
     2  N    1.356374   0.000000
     3  O    1.235835   2.302323   0.000000
     4  H    2.062868   1.017726   2.581031   0.000000
     5  H    2.074459   1.015936   3.204602   1.749727   0.000000
     6  H    1.116271   2.053050   2.066696   2.979962   2.306426
                    6
     6  H    0.000000
 Symmetry turned off by external request.
 Stoichiometry    CH3NO
 Framework group  C1[X(CH3NO)]
 Deg. of freedom    12
 Full point group                 C1      NOp   1
 Rotational constants (GHZ):     72.6691373     11.1370459      9.6570383
 Standard basis: 6-31G(d,p) (6D, 7F)
 Integral buffers will be    131072 words long.
 Raffenetti 2 integral format.
 Two-electron integral symmetry is turned off.
    60 basis functions,   105 primitive gaussians,    60 cartesian basis functions
    12 alpha electrons       12 beta electrons
       nuclear repulsion energy        70.5338124348 Hartrees.
 NAtoms=    6 NActive=    6 NUniq=    6 SFac= 7.50D-01 NAtFMM=   80 NAOKFM=F Big=F
 Standard density basis: Auto (5D, 7F)
   276 Density fitting functions
 ------------------------------------------------------------------------------
 Polarizable Continuum Model (PCM)
 =================================
 Model                : PCM.
 Atomic radii         : UFF (Universal Force Field).
 Polarization charges : Total charges.
 Charge compensation  : None.
 Solution method      : Matrix inversion.
 Cavity type          : Scaled VdW (van der Waals Surface) (Alpha=1.100).
 Cavity algorithm     : GePol (No added spheres)
                        Default sphere list used, NSphG=    6.
                        Lebedev-Laikov grids with approx.  5.0 points / Ang**2.
                        Smoothing algorithm: Karplus/York (Gamma=1.0000).
                        Polarization charges: spherical gaussians, with
                                              point-specific exponents (IZeta= 3).
                        Self-potential: point-specific (ISelfS= 7).
                        Self-field    : sphere-specific E.n sum rule (ISelfD= 2).
 1st derivatives      : Analytical E(r).r(x)/FMM algorithm (CHGder, D1EAlg=3).
                        Cavity 1st derivative terms included.
 Solvent              : Water, Eps=  78.355300 Eps(inf)=   1.777849
 ------------------------------------------------------------------------------
 Spheres list:
 ISph  on   Nord    Re0     Alpha      Xe            Ye            Ze
    1   C      1    1.926   1.100     -0.151653      0.389263      0.000002
    2   N      2    1.830   1.100      1.087441     -0.162459     -0.000014
    3   O      3    1.750   1.100     -1.213471     -0.243059     -0.000035
    4   H      4    1.443   1.100      1.193578     -1.174635      0.000133
    5   H      5    1.443   1.100      1.922634      0.415969      0.000226
    6   H      6    1.443   1.100     -0.110613      1.504779      0.000010
 ------------------------------------------------------------------------------
 One-electron integrals computed using PRISM.
 NBasis=    60 RedAO= T  NBF=    60
 NBsUse=    60 1.00D-06 NBFU=    60
 NBasis=       60 NBas6D=       60 NTT=        1830   NTT6D=     1830
 NDBShl=       48 NDBF=        276 NDBF6D=      318  NNucDB=        0
 IDenFi=        2 ISolve=        0 FullAP=F BlkAPC=T NucTyp=        0
 TolInv= 1.00D-05 TolIt=  1.00D-10 IR12=0.
 Symmetry not used in FoFDir.
 MinBra= 0 MaxBra= 3 Meth= 1.
 IRaf=       0 NMat=   1 IRICut=       1 DoRegI=T DoRafI=F ISym2E= 0 JSym2E=0.
  NDBF=   276  NBFD=   276
 NRank=   276 NBFDU=   276
 S*AI*S=  5.04655029126    
 Harris functional with IExCor= 1009 diagonalized for initial guess.
 ExpMin= 1.61D-01 ExpMax= 5.48D+03 ExpMxC= 8.25D+02 IAcc=1 IRadAn=         1 AccDes= 0.00D+00
 HarFok:  IExCor= 1009 AccDes= 0.00D+00 IRadAn=         1 IDoV= 1
 ScaDFX=  1.000000  1.000000  1.000000  1.000000
 FoFCou: FMM=F IPFlag=           0 FMFlag=      100000 FMFlg1=           0
         NFxFlg=           0 DoJE=T BraDBF=F KetDBF=T FulRan=T
         Omega=  0.000000  0.000000  1.000000  0.000000  0.000000 ICntrl=     500 IOpCl=  0
         NMat0=    1 NMatS0=    1 NMatT0=    0 NMatD0=    1 NMtDS0=    0 NMtDT0=    0
         I1Cent=           4 NGrid=           0.
 Symmetry not used in FoFCou.
 Requested convergence on RMS density matrix=1.00D-08 within 128 cycles.
 Requested convergence on MAX density matrix=1.00D-06.
 Requested convergence on             energy=1.00D-06.
 No special actions if energy rises.
 FoFCou: FMM=F IPFlag=           0 FMFlag=      100000 FMFlg1=           0
         NFxFlg=           0 DoJE=T BraDBF=T KetDBF=F FulRan=T
         Omega=  0.000000  0.000000  1.000000  0.000000  0.000000 ICntrl=     500 IOpCl=  0
         NMat0=    1 NMatS0=    1 NMatT0=    0 NMatD0=    1 NMtDS0=    0 NMtDT0=    0
         I1Cent=           5 NGrid=           0.
 Symmetry not used in FoFCou.
 Error on total polarization charges =  0.00340
 SCF Done:  E(RPBE-PBE) =  -169.714911362     A.U. after   10 cycles
             Convg  =    0.8034D-08             -V/T =  2.0093
 ExpMin= 1.61D-01 ExpMax= 5.48D+03 ExpMxC= 8.25D+02 IAcc=1 IRadAn=         1 AccDes= 0.00D+00
 HarFok:  IExCor=  205 AccDes= 0.00D+00 IRadAn=         1 IDoV=-2
 ScaDFX=  1.000000  1.000000  1.000000  1.000000
 Range of M.O.s used for correlation:     4    60
 NBasis=    60 NAE=    12 NBE=    12 NFC=     3 NFV=     0
 NROrb=     57 NOA=     9 NOB=     9 NVA=    48 NVB=    48
 NEqPCM:  Using equilibrium solvation (IEInf=0, Eps=  78.3553, EpsInf=   1.7778)
    40 initial guesses have been made.
 Convergence on wavefunction:    0.000001000000000
 Iteration     1 Dimension    40 NMult    40
 CISAX will form    40 AO SS matrices at one time.
 New state      2 was old state      3
 New state      3 was old state      5
 New state      5 was old state      2
 New state      7 was old state      9
 New state      9 was old state     10
 New state     10 was old state     11
 Iteration     2 Dimension    80 NMult    80
 No map to state     10
 Iteration     3 Dimension    90 NMult    90
 Iteration     4 Dimension   100 NMult   100
 Iteration     5 Dimension   110 NMult   110
 Iteration     6 Dimension   120 NMult   120
 Iteration     7 Dimension   130 NMult   130
 Iteration     8 Dimension   140 NMult   140
 Iteration     9 Dimension   150 NMult   150
 Iteration    10 Dimension   160 NMult   160
 Iteration    11 Dimension   167 NMult   167
 Iteration    12 Dimension   173 NMult   173
 Iteration    13 Dimension   175 NMult   175
 ***********************************************************************
 Excited states from <AA,BB:AA,BB> singles matrix:
 ***********************************************************************
 
 Ground to excited state transition electric dipole moments (Au):
       state          X           Y           Z        Dip. S.      Osc.
         1         0.0000      0.0000      0.0961      0.0092      0.0013
         2         0.4200     -0.0364     -0.0001      0.1777      0.0317
         3        -1.2926      0.4903      0.0000      1.9112      0.3770
         4        -0.0003      0.0000      0.1121      0.0126      0.0026
         5         0.7171      0.6726      0.0000      0.9666      0.1982
         6        -0.0002     -0.0002      0.0351      0.0012      0.0003
         7         0.0010     -0.2875      0.0001      0.0826      0.0199
         8         0.0001     -0.0001     -0.0876      0.0077      0.0018
         9        -0.0001      0.0000      0.0166      0.0003      0.0001
        10        -0.0296     -0.6669      0.0000      0.4456      0.1196
 Ground to excited state transition velocity dipole moments (Au):
       state          X           Y           Z        Dip. S.      Osc.
         1         0.0000      0.0000     -0.0208      0.0004      0.0014
         2        -0.1160      0.0067      0.0000      0.0135      0.0336
         3         0.3571     -0.1380      0.0000      0.1466      0.3302
         4         0.0001      0.0000     -0.0625      0.0039      0.0085
         5        -0.2312     -0.1968      0.0000      0.0922      0.1998
         6         0.0001      0.0001     -0.0211      0.0004      0.0009
         7         0.0018      0.0929      0.0000      0.0086      0.0160
         8         0.0000      0.0000      0.0505      0.0026      0.0047
         9         0.0000      0.0000     -0.0057      0.0000      0.0001
        10         0.0051      0.2509      0.0000      0.0630      0.1042
 Ground to excited state transition magnetic dipole moments (Au):
       state          X           Y           Z
         1        -0.8932     -0.4249      0.0000
         2         0.0001      0.0000      0.2409
         3         0.0000      0.0000     -0.3391
         4        -0.0146      0.2814     -0.0001
         5         0.0000      0.0000     -0.1365
         6         0.1866      0.0296      0.0001
         7         0.0006     -0.0007      0.0956
         8        -0.9778      1.1305      0.0000
         9         0.0514     -0.0341      0.0001
        10        -0.0001     -0.0002     -0.0456
 <0|del|b> * <b|rxdel|0> + <0|del|b> * <b|delr+rdel|0>
 Rotatory Strengths (R) in cgs (10**-40 erg-esu-cm/Gauss)
       state          XX          YY          ZZ    R(velocity)
         1         0.0010      0.0083      0.0083      0.0059
 Total R(velocity) tensor for State=          1
                 1             2             3 
      1   0.987197D-03 -0.360157D-02  0.000000D+00
      2  -0.359776D-02  0.828744D-02  0.000000D+00
      3  -0.303471D+02 -0.150169D+02  0.828617D-02
         2         0.0079     -0.0192     -0.0159     -0.0091
 Total R(velocity) tensor for State=          2
                 1             2             3 
      1   0.787497D-02 -0.353825D-02  0.601163D+02
      2   0.177337D-02 -0.191820D-01  0.214106D+02
      3   0.134211D+00  0.233230D+01 -0.158928D-01
         3        -0.0078      0.0023      0.0055      0.0000
 Total R(velocity) tensor for State=          3
                 1             2             3 
      1  -0.776692D-02  0.320914D-02  0.176384D+03
      2   0.882220D-03  0.234446D-02  0.463354D+00
      3   0.629745D+01  0.162981D+02  0.546312D-02
         4         0.0120      0.0020     -0.0032      0.0036
 Total R(velocity) tensor for State=          4
                 1             2             3 
      1   0.120032D-01 -0.604642D-01  0.120937D-04
      2  -0.181947D-02  0.199536D-02 -0.277715D-05
      3  -0.218121D+01  0.328400D+01 -0.321187D-02
         5        -0.0141     -0.0080     -0.0088     -0.0103
 Total R(velocity) tensor for State=          5
                 1             2             3 
      1  -0.141216D-01  0.212404D-01 -0.524136D+02
      2   0.161150D-01 -0.798021D-02 -0.123243D+03
      3  -0.134410D+01  0.157858D+01 -0.878629D-02
         6        -0.0023      0.0188      0.0082      0.0082
 Total R(velocity) tensor for State=          6
                 1             2             3 
      1  -0.230324D-02 -0.196194D-03 -0.764007D-05
      2  -0.223890D-01  0.188335D-01 -0.613591D-05
      3   0.203420D+01  0.610522D+00  0.818391D-02
         7        -0.0686     -0.0079     -0.0472     -0.0412
 Total R(velocity) tensor for State=          7
                 1             2             3 
      1  -0.686064D-01 -0.143363D-01 -0.433191D+02
      2  -0.907714D-01 -0.787379D-02 -0.266508D+02
      3   0.119393D+01 -0.232787D-01 -0.472315D-01
         8         0.0351      0.0375      0.0503      0.0410
 Total R(velocity) tensor for State=          8
                 1             2             3 
      1   0.350941D-01  0.533692D-01 -0.146642D-04
      2   0.628989D-01  0.375058D-01  0.112144D-04
      3   0.397764D+02 -0.432776D+02  0.502947D-01
         9        -0.0036      0.0020      0.0006     -0.0003
 Total R(velocity) tensor for State=          9
                 1             2             3 
      1  -0.358147D-02  0.251279D-02 -0.112314D-05
      2  -0.147991D-02  0.195603D-02  0.344642D-05
      3  -0.409384D-01  0.171682D+00  0.596337D-03
        10        -0.0295     -0.0020     -0.0350     -0.0222
 Total R(velocity) tensor for State=         10
                 1             2             3 
      1  -0.295489D-01 -0.108907D-01 -0.216266D+03
      2   0.239992D-01 -0.200505D-02 -0.285799D+02
      3  -0.461962D+02  0.936737D+00 -0.350146D-01
 1/2[<0|r|b>*<b|rxdel|0> + (<0|rxdel|b>*<b|r|0>)*]
 Rotatory Strengths (R) in cgs (10**-40 erg-esu-cm/Gauss)
       state          XX          YY          ZZ     R(length)     R(au)
         1         0.0144     -0.0013      0.0001      0.0044      0.0000
         2        -0.0363      0.0004      0.0136     -0.0074      0.0000
         3         0.0222     -0.0062     -0.0114      0.0015      0.0000
         4        -0.0035      0.0023      0.0049      0.0012      0.0000
         5        -0.0163     -0.0203      0.0031     -0.0112      0.0000
         6         0.0249      0.0042     -0.0031      0.0087      0.0000
         7        -0.0004     -0.1334     -0.0043     -0.0460     -0.0001
         8         0.0563      0.0859     -0.0024      0.0466      0.0001
         9         0.0024     -0.0011     -0.0014      0.0000      0.0000
        10        -0.0022     -0.0714      0.0006     -0.0243     -0.0001
  1/2[<0|del|b>*<b|r|0> + (<0|r|b>*<b|del|0>)*] (Au)
       state          X           Y           Z        Dip. S.   Osc.(frdel)
         1         0.0000      0.0000     -0.0020      0.0020      0.0013
         2        -0.0487     -0.0002      0.0000      0.0489      0.0326
         3        -0.4616     -0.0677      0.0000      0.5292      0.3528
         4         0.0000      0.0000     -0.0070      0.0070      0.0047
         5        -0.1658     -0.1324      0.0000      0.2982      0.1988
         6         0.0000      0.0000     -0.0007      0.0007      0.0005
         7         0.0000     -0.0267      0.0000      0.0267      0.0178
         8         0.0000      0.0000     -0.0044      0.0044      0.0030
         9         0.0000      0.0000     -0.0001      0.0001      0.0001
        10        -0.0002     -0.1673      0.0000      0.1674      0.1116
 Ground to excited state transition densities written to RWF  633

 Excitation energies and oscillator strengths:
 
 Excited state symmetry could not be determined.
 Excited State   1:      Singlet-?Sym    5.5797 eV  222.21 nm  f=0.0013  <S**2>=0.000
      12 -> 13         0.70696
 
 Excited state symmetry could not be determined.
 Excited State   2:      Singlet-?Sym    7.2923 eV  170.02 nm  f=0.0317  <S**2>=0.000
      11 -> 13         0.49684
      12 -> 14         0.50125
 
 Excited state symmetry could not be determined.
 Excited State   3:      Singlet-?Sym    8.0523 eV  153.97 nm  f=0.3770  <S**2>=0.000
      11 -> 13        -0.44725
      12 -> 14         0.45285
      12 -> 15         0.29158
 
 Excited state symmetry could not be determined.
 Excited State   4:      Singlet-?Sym    8.3421 eV  148.63 nm  f=0.0026  <S**2>=0.000
      11 -> 14         0.70236
 
 Excited state symmetry could not be determined.
 Excited State   5:      Singlet-?Sym    8.3711 eV  148.11 nm  f=0.1982  <S**2>=0.000
      11 -> 13         0.19884
      12 -> 14        -0.19709
      12 -> 15         0.64103
 
 Excited state symmetry could not be determined.
 Excited State   6:      Singlet-?Sym    8.8879 eV  139.50 nm  f=0.0003  <S**2>=0.000
      11 -> 15         0.70322
 
 Excited state symmetry could not be determined.
 Excited State   7:      Singlet-?Sym    9.8058 eV  126.44 nm  f=0.0199  <S**2>=0.000
      12 -> 16         0.70027
 This state for optimization and/or second-order correction.
 Copying the excited state density for this state as the 1-particle RhoCI density.
 
 Excited state symmetry could not be determined.
 Excited State   8:      Singlet-?Sym    9.8133 eV  126.34 nm  f=0.0018  <S**2>=0.000
       9 -> 13         0.70180
 
 Excited state symmetry could not be determined.
 Excited State   9:      Singlet-?Sym   10.3675 eV  119.59 nm  f=0.0001  <S**2>=0.000
      11 -> 16         0.70445
 
 Excited state symmetry could not be determined.
 Excited State  10:      Singlet-?Sym   10.9600 eV  113.12 nm  f=0.1196  <S**2>=0.000
      10 -> 13         0.67089
 SavETr:  write IOETrn=   770 NScale= 10 NData=  16 NLR=1 LETran=     190.
          IDoAtm=111111
 NEqPCM:  Using equilibrium solvation (IEInf=0, Eps=  78.3553, EpsInf=   1.7778)
          Differentiating once with respect to electric field.
                with respect to dipole field.
          Differentiating once with respect to nuclear coordinates.
          There are     1 degrees of freedom in the 1st order CPHF.  IDoFFX=0.
 FoFCou: FMM=F IPFlag=           0 FMFlag=      100000 FMFlg1=           0
         NFxFlg=           0 DoJE=T BraDBF=T KetDBF=F FulRan=T
         Omega=  0.000000  0.000000  1.000000  0.000000  0.000000 ICntrl=     500 IOpCl=  0
         NMat0=    1 NMatS0=    1 NMatT0=    0 NMatD0=    1 NMtDS0=    0 NMtDT0=    0
         I1Cent=           5 NGrid=           0.
 Symmetry not used in FoFCou.
 LinEq1:  Iter=  0 NonCon=     1 RMS=1.06D-01 Max=2.00D+00
 AX will form     1 AO Fock derivatives at one time.
 LinEq1:  Iter=  1 NonCon=     1 RMS=3.82D-02 Max=3.04D-01
 LinEq1:  Iter=  2 NonCon=     1 RMS=1.94D-02 Max=1.62D-01
 LinEq1:  Iter=  3 NonCon=     1 RMS=1.42D-02 Max=2.08D-01
 LinEq1:  Iter=  4 NonCon=     1 RMS=4.98D-03 Max=4.12D-02
 LinEq1:  Iter=  5 NonCon=     1 RMS=9.81D-04 Max=8.93D-03
 LinEq1:  Iter=  6 NonCon=     1 RMS=1.79D-04 Max=1.83D-03
 LinEq1:  Iter=  7 NonCon=     1 RMS=1.62D-05 Max=1.50D-04
 LinEq1:  Iter=  8 NonCon=     1 RMS=2.88D-06 Max=2.47D-05
 LinEq1:  Iter=  9 NonCon=     1 RMS=3.73D-07 Max=1.96D-06
 LinEq1:  Iter= 10 NonCon=     1 RMS=5.55D-08 Max=3.25D-07
 LinEq1:  Iter= 11 NonCon=     1 RMS=7.06D-09 Max=7.30D-08
 LinEq1:  Iter= 12 NonCon=     1 RMS=8.10D-10 Max=7.38D-09
 LinEq1:  Iter= 13 NonCon=     1 RMS=1.08D-10 Max=7.90D-10
 LinEq1:  Iter= 14 NonCon=     0 RMS=1.18D-11 Max=8.41D-11
 Linear equations converged to 1.000D-10 1.000D-09 after    14 iterations.
 End of Minotr Frequency-dependent properties file   721 does not exist.
 End of Minotr Frequency-dependent properties file   722 does not exist.

 **********************************************************************

            Population analysis using the SCF density.

 **********************************************************************

 Alpha  occ. eigenvalues --  -18.74245 -14.02918  -9.99110  -0.93388  -0.82054
 Alpha  occ. eigenvalues --   -0.55765  -0.48929  -0.41797  -0.35522  -0.35014
 Alpha  occ. eigenvalues --   -0.22901  -0.20611
 Alpha virt. eigenvalues --   -0.00867   0.06938   0.09588   0.14959   0.23440
 Alpha virt. eigenvalues --    0.30640   0.50190   0.51029   0.60626   0.61615
 Alpha virt. eigenvalues --    0.64643   0.67533   0.78884   0.79491   0.79896
 Alpha virt. eigenvalues --    0.81496   0.93354   1.01100   1.16814   1.21960
 Alpha virt. eigenvalues --    1.26803   1.31546   1.43438   1.44999   1.68141
 Alpha virt. eigenvalues --    1.74349   1.76357   1.88481   1.92715   2.00771
 Alpha virt. eigenvalues --    2.04021   2.05102   2.19126   2.28528   2.40649
 Alpha virt. eigenvalues --    2.44059   2.53071   2.64502   2.66327   2.76147
 Alpha virt. eigenvalues --    2.88769   2.91957   3.15163   3.35507   3.54551
 Alpha virt. eigenvalues --    3.76768   3.85322   4.29513
          Condensed to atoms (all electrons):
              1          2          3          4          5          6
     1  C    4.462896   0.270795   0.577399  -0.010183  -0.006904   0.370813
     2  N    0.270795   6.841028  -0.087247   0.311593   0.317996  -0.114034
     3  O    0.577399  -0.087247   8.048394   0.006288   0.003204  -0.056678
     4  H   -0.010183   0.311593   0.006288   0.407141  -0.019125   0.007696
     5  H   -0.006904   0.317996   0.003204  -0.019125   0.396192   0.003758
     6  H    0.370813  -0.114034  -0.056678   0.007696   0.003758   0.693604
 Mulliken atomic charges:
              1
     1  C    0.335185
     2  N   -0.540132
     3  O   -0.491360
     4  H    0.296590
     5  H    0.304878
     6  H    0.094840
 Sum of Mulliken atomic charges =   0.00000
 Mulliken charges with hydrogens summed into heavy atoms:
              1
     1  C    0.430024
     2  N    0.061336
     3  O   -0.491360
 Sum of Mulliken charges with hydrogens summed into heavy atoms =   0.00000
 Electronic spatial extent (au):  <R**2>=            146.9346
 Charge=              0.0000 electrons
 Dipole moment (field-independent basis, Debye):
    X=              4.6250    Y=              0.7633    Z=              0.0008  Tot=              4.6876
 Quadrupole moment (field-independent basis, Debye-Ang):
   XX=            -16.8885   YY=            -14.8254   ZZ=            -18.3980
   XY=             -1.1609   XZ=              0.0011   YZ=             -0.0001
 Traceless Quadrupole moment (field-independent basis, Debye-Ang):
   XX=             -0.1845   YY=              1.8786   ZZ=             -1.6941
   XY=             -1.1609   XZ=              0.0011   YZ=             -0.0001
 Octapole moment (field-independent basis, Debye-Ang**2):
  XXX=             14.7886  YYY=             -2.4821  ZZZ=              0.0004  XYY=              3.2203
  XXY=              0.8676  XXZ=              0.0024  XZZ=             -1.1090  YZZ=             -0.3743
  YYZ=              0.0005  XYZ=              0.0000
 Hexadecapole moment (field-independent basis, Debye-Ang**3):
 XXXX=           -104.2171 YYYY=            -32.1307 ZZZZ=            -15.4860 XXXY=              2.5203
 XXXZ=              0.0025 YYYX=             -3.2035 YYYZ=             -0.0005 ZZZX=             -0.0010
 ZZZY=             -0.0002 XXYY=            -22.1989 XXZZ=            -23.5282 YYZZ=             -9.0369
 XXYZ=              0.0002 YYXZ=              0.0002 ZZXY=              0.2576
 N-N= 7.053381243479D+01 E-N=-5.389023606605D+02  KE= 1.681442741939D+02
 D1PCM: PCM CHGder 1st derivatives, ID1Alg=3 FixD1E=F DoIter=F DoCFld=F I1PDM=6.
 Fitting Gamma and (X+Y) densities for TD-KS first derivatives, JSym2E=0.
 Calling FoFJK, ICntrl=      5527 FMM=F ISym2X=0 I1Cent= 4 IOpClX= 0 NMat=1 NMatS=1 NMatT=0.
 -------------------------------------------------------------------
 Center     Atomic                   Forces (Hartrees/Bohr)
 Number     Number              X              Y              Z
 -------------------------------------------------------------------
      1        6           0.076232840   -0.009562538    0.000001764
      2        7          -0.028903045    0.047661237   -0.000015140
      3        8          -0.077226762   -0.049893164   -0.000001260
      4        1          -0.001536269   -0.042494920    0.000006936
      5        1           0.042145935   -0.000316101    0.000009874
      6        1          -0.010712699    0.054605486   -0.000002174
 -------------------------------------------------------------------
 Cartesian Forces:  Max     0.077226762 RMS     0.036624406

 GradGradGradGradGradGradGradGradGradGradGradGradGradGradGradGradGradGrad
 Berny optimization.
 Search for a local minimum.
 Step number   1 out of a maximum of    2
 All quantities printed in internal units (Hartrees-Bohrs-Radians)
 Second derivative matrix not updated -- first step.
 The second derivative matrix:
                          X1        Y1        Z1        X2        Y2
           X1           1.25302
           Y1           0.20091   0.85400
           Z1           0.00002   0.00002   0.13604
           X2          -0.47536   0.13148   0.00002   0.94936
           Y2           0.13846  -0.24086  -0.00001  -0.03367   0.87678
           Z2           0.00000  -0.00001  -0.08001   0.00010  -0.00001
           X3          -0.68237  -0.33674  -0.00002  -0.00869  -0.01952
           Y3          -0.34359  -0.32150  -0.00001   0.01460   0.03278
           Z3          -0.00002  -0.00002  -0.04378   0.00000   0.00001
           X4           0.01313   0.02949  -0.00001  -0.12810   0.04333
           Y4           0.00138   0.00309   0.00000   0.03344  -0.44249
           Z4           0.00000   0.00000   0.01706  -0.00002   0.00008
           X5          -0.00753  -0.01691  -0.00001  -0.34923  -0.15562
           Y5           0.01087   0.02442   0.00001  -0.14540  -0.22523
           Z5           0.00000   0.00000   0.01388  -0.00010  -0.00006
           X6          -0.10088  -0.00822   0.00000   0.01203   0.02701
           Y6          -0.00804  -0.31915   0.00000  -0.00044  -0.00099
           Z6           0.00000   0.00000  -0.04319   0.00000   0.00000
                          Z2        X3        Y3        Z3        X4
           Z2           0.16689
           X3           0.00000   0.67445
           Y3           0.00000   0.35688   0.28770
           Z3           0.01382   0.00002   0.00001   0.02072
           X4          -0.00002   0.00000   0.00000   0.00000   0.09044
           Y4           0.00005   0.00000   0.00000   0.00000  -0.03739
           Z4          -0.05759   0.00000   0.00000  -0.00714   0.00002
           X5          -0.00008   0.00000   0.00000   0.00000   0.02454
           Y5          -0.00004   0.00000   0.00000   0.00000  -0.03543
           Z5          -0.05532   0.00000   0.00000   0.00725   0.00001
           X6           0.00000   0.01661  -0.02789   0.00000   0.00000
           Y6           0.00000  -0.00061   0.00103   0.00000   0.00000
           Z6           0.01220   0.00000   0.00000   0.00913   0.00000
                          Y4        Z4        X5        Y5        Z5
           Y4           0.44311
           Z4          -0.00006   0.02852
           X5           0.00257   0.00001   0.33222
           Y5          -0.00372  -0.00001   0.16996   0.20453
           Z5           0.00000   0.01219   0.00009   0.00005   0.02907
           X6           0.00000   0.00000   0.00000   0.00000   0.00000
           Y6           0.00000   0.00000   0.00000   0.00000   0.00000
           Z6           0.00000   0.00696   0.00000   0.00000  -0.00707
                          X6        Y6        Z6
           X6           0.07225
           Y6           0.00909   0.31912
           Z6           0.00000   0.00000   0.02196
     Eigenvalues ---    0.02677   0.04610   0.08745   0.09003   0.14836
     Eigenvalues ---    0.19305   0.23627   0.35504   0.65476   1.09663
     Eigenvalues ---    1.39330   2.11093
 Quadratic step=5.959D-01 exceeds max=3.000D-01 adjusted using Lamda=-6.988D-02.
 Angle between NR and scaled steps=  18.62 degrees.
 Angle between quadratic step and forces=  51.58 degrees.
 Linear search not attempted -- first point.
 TrRot= -0.001973 -0.010673  0.000000  0.004600  0.000002  0.004600
 Variable       Old X    -DE/DX   Delta X   Delta X   Delta X     New X
                                 (Linear)    (Quad)   (Total)
    X1       -0.28658   0.07623   0.00000   0.01639   0.00750  -0.27909
    Y1        0.73560  -0.00956   0.00000   0.01799   0.00480   0.74040
    Z1        0.00000   0.00000   0.00000   0.00000   0.00000   0.00000
    X2        2.05497  -0.02890   0.00000   0.02382   0.02419   2.07916
    Y2       -0.30700   0.04766   0.00000   0.04255   0.05101  -0.25599
    Z2       -0.00003  -0.00002   0.00000  -0.00001  -0.00001  -0.00004
    X3       -2.29313  -0.07723   0.00000  -0.04805  -0.04513  -2.33826
    Y3       -0.45931  -0.04989   0.00000  -0.06156  -0.09374  -0.55306
    Z3       -0.00007   0.00000   0.00000   0.00000   0.00001  -0.00006
    X4        2.25554  -0.00154   0.00000  -0.07194  -0.05307   2.20246
    Y4       -2.21974  -0.04249   0.00000  -0.05598  -0.04647  -2.26621
    Z4        0.00025   0.00001   0.00000   0.00000  -0.00001   0.00025
    X5        3.63325   0.04215   0.00000   0.18484   0.17625   3.80950
    Y5        0.78607  -0.00032   0.00000  -0.08502  -0.06060   0.72547
    Z5        0.00043   0.00001   0.00000   0.00004   0.00003   0.00046
    X6       -0.20903  -0.01071   0.00000  -0.08016  -0.10974  -0.31876
    Y6        2.84362   0.05461   0.00000   0.15846   0.14500   2.98862
    Z6        0.00002   0.00000   0.00000  -0.00002  -0.00002   0.00000
         Item               Value     Threshold  Converged?
 Maximum Force            0.077227     0.000450     NO 
 RMS     Force            0.036624     0.000300     NO 
 Maximum Displacement     0.176253     0.001800     NO 
 RMS     Displacement     0.069471     0.001200     NO 
 Predicted change in Energy=-1.766628D-02
 GradGradGradGradGradGradGradGradGradGradGradGradGradGradGradGradGradGrad

 1\1\GINC-CLODOMIRA\Force\RTD-PBEPBE-FC\6-31G(d,p)\C1H3N1O1\DIEGOA\31-O
 ct-2019\0\\# pbepbe/6-31G** force nosymm td(root=7,nstates=10) SCRF=PC
 M\\Title\\0,1\C,-0.151653,0.389263,0.000002\N,1.087441,-0.162459,-0.00
 0014\O,-1.213471,-0.243059,-0.000035\H,1.193578,-1.174635,0.000133\H,1
 .922634,0.415969,0.000226\H,-0.110613,1.504779,0.00001\\Version=EM64L-
 G09RevA.01\HF=-169.7149114\RMSD=8.034e-09\RMSF=3.662e-02\Dipole=0.1120
 87,-0.5644565,0.0000876\PG=C01 [X(C1H3N1O1)]\\@


 We find comfort among those who agree with us -- growth among those who don't.
 -- Frank A. Clark
 Job cpu time:  0 days  0 hours  1 minutes 50.7 seconds.
 File lengths (MBytes):  RWF=     22 Int=      0 D2E=      0 Chk=      4 Scr=      1
 Normal termination of Gaussian 09 at Thu Oct 31 12:27:51 2019.
