Title                                                                   
Freq      RBP86                                                       TZVP                
Number of atoms                            I               14
Info1-9                                    I   N=           9
          23          22        1002           0           0         100
           6          18         402
Charge                                     I                0
Multiplicity                               I                1
Number of electrons                        I               44
Number of alpha electrons                  I               22
Number of beta electrons                   I               22
Number of basis functions                  I              162
Number of independent functions            I              162
Number of point charges in /Mol/           I                0
Number of translation vectors              I                0
Atomic numbers                             I   N=          14
           6           6           6           6           6           6
           1           1           1           1           1           1
           1           1
Nuclear charges                            R   N=          14
  6.00000000E+00  6.00000000E+00  6.00000000E+00  6.00000000E+00  6.00000000E+00
  6.00000000E+00  1.00000000E+00  1.00000000E+00  1.00000000E+00  1.00000000E+00
  1.00000000E+00  1.00000000E+00  1.00000000E+00  1.00000000E+00
Current cartesian coordinates              R   N=          42
 -5.82665194E+00  3.15275734E-01  1.06455826E-06 -3.52888986E+00 -7.91315773E-01
 -9.99153919E-07 -1.15555648E+00  5.62201163E-01 -5.50282637E-07  1.15555660E+00
 -5.62201056E-01 -5.51029712E-07  3.52888996E+00  7.91315782E-01 -9.99091161E-07
  5.82665179E+00 -3.15275840E-01  1.06457223E-06 -1.25793148E+00  2.63332889E+00
 -7.98215927E-07  1.25793159E+00 -2.63332869E+00 -7.98912118E-07  3.40998488E+00
  2.86037705E+00 -1.74650863E-06  6.03143667E+00 -2.37117728E+00  3.06585759E-06
  7.56233907E+00  7.96771583E-01  2.39049773E-06 -7.56233931E+00 -7.96771929E-01
  2.39044395E-06 -6.03143711E+00  2.37117734E+00  3.06545015E-06 -3.40998476E+00
 -2.86037703E+00 -1.74605114E-06
Force Field                                I                0
Int Atom Types                             I   N=          14
           0           0           0           0           0           0
           0           0           0           0           0           0
           0           0
MM charges                                 R   N=          14
  0.00000000E+00  0.00000000E+00  0.00000000E+00  0.00000000E+00  0.00000000E+00
  0.00000000E+00  0.00000000E+00  0.00000000E+00  0.00000000E+00  0.00000000E+00
  0.00000000E+00  0.00000000E+00  0.00000000E+00  0.00000000E+00
Integer atomic weights                     I   N=          14
          12          12          12          12          12          12
           1           1           1           1           1           1
           1           1
Real atomic weights                        R   N=          14
  1.20000000E+01  1.20000000E+01  1.20000000E+01  1.20000000E+01  1.20000000E+01
  1.20000000E+01  1.00782504E+00  1.00782504E+00  1.00782504E+00  1.00782504E+00
  1.00782504E+00  1.00782504E+00  1.00782504E+00  1.00782504E+00
Atom fragment info                         I   N=          14
           0           0           0           0           0           0
           0           0           0           0           0           0
           0           0
Atom residue num                           I   N=          14
           0           0           0           0           0           0
           0           0           0           0           0           0
           0           0
Nuclear spins                              I   N=          14
           0           0           0           0           0           0
           1           1           1           1           1           1
           1           1
Nuclear ZEff                               R   N=          14
 -3.60000000E+00 -3.60000000E+00 -3.60000000E+00 -3.60000000E+00 -3.60000000E+00
 -3.60000000E+00 -1.00000000E+00 -1.00000000E+00 -1.00000000E+00 -1.00000000E+00
 -1.00000000E+00 -1.00000000E+00 -1.00000000E+00 -1.00000000E+00
Nuclear QMom                               R   N=          14
  0.00000000E+00  0.00000000E+00  0.00000000E+00  0.00000000E+00  0.00000000E+00
  0.00000000E+00  0.00000000E+00  0.00000000E+00  0.00000000E+00  0.00000000E+00
  0.00000000E+00  0.00000000E+00  0.00000000E+00  0.00000000E+00
Nuclear GFac                               R   N=          14
  0.00000000E+00  0.00000000E+00  0.00000000E+00  0.00000000E+00  0.00000000E+00
  0.00000000E+00  2.79284600E+00  2.79284600E+00  2.79284600E+00  2.79284600E+00
  2.79284600E+00  2.79284600E+00  2.79284600E+00  2.79284600E+00
MicOpt                                     I   N=          14
          -1          -1          -1          -1          -1          -1
          -1          -1          -1          -1          -1          -1
          -1          -1
Number of contracted shells                I               86
Number of primitive shells                 I              156
Pure/Cartesian d shells                    I                0
Pure/Cartesian f shells                    I                0
Highest angular momentum                   I                2
Largest degree of contraction              I                6
Shell types                                I   N=          86
           0           0           0           0           0           1
           1           1          -2           0           0           0
           0           0           1           1           1          -2
           0           0           0           0           0           1
           1           1          -2           0           0           0
           0           0           1           1           1          -2
           0           0           0           0           0           1
           1           1          -2           0           0           0
           0           0           1           1           1          -2
           0           0           0           1           0           0
           0           1           0           0           0           1
           0           0           0           1           0           0
           0           1           0           0           0           1
           0           0           0           1           0           0
           0           1
Number of primitives per shell             I   N=          86
           6           2           1           1           1           4
           1           1           1           6           2           1
           1           1           4           1           1           1
           6           2           1           1           1           4
           1           1           1           6           2           1
           1           1           4           1           1           1
           6           2           1           1           1           4
           1           1           1           6           2           1
           1           1           4           1           1           1
           3           1           1           1           3           1
           1           1           3           1           1           1
           3           1           1           1           3           1
           1           1           3           1           1           1
           3           1           1           1           3           1
           1           1
Shell to atom map                          I   N=          86
           1           1           1           1           1           1
           1           1           1           2           2           2
           2           2           2           2           2           2
           3           3           3           3           3           3
           3           3           3           4           4           4
           4           4           4           4           4           4
           5           5           5           5           5           5
           5           5           5           6           6           6
           6           6           6           6           6           6
           7           7           7           7           8           8
           8           8           9           9           9           9
          10          10          10          10          11          11
          11          11          12          12          12          12
          13          13          13          13          14          14
          14          14
Primitive exponents                        R   N=         156
  1.35753497E+04  2.03523337E+03  4.63225624E+02  1.31200196E+02  4.28530159E+01
  1.55841858E+01  6.20671385E+00  2.57648965E+00  5.76963390E-01  2.29728310E-01
  9.51644400E-02  3.46972322E+01  7.95826228E+00  2.37808269E+00  8.14332080E-01
  2.88875470E-01  1.00568240E-01  8.00000000E-01  1.35753497E+04  2.03523337E+03
  4.63225624E+02  1.31200196E+02  4.28530159E+01  1.55841858E+01  6.20671385E+00
  2.57648965E+00  5.76963390E-01  2.29728310E-01  9.51644400E-02  3.46972322E+01
  7.95826228E+00  2.37808269E+00  8.14332080E-01  2.88875470E-01  1.00568240E-01
  8.00000000E-01  1.35753497E+04  2.03523337E+03  4.63225624E+02  1.31200196E+02
  4.28530159E+01  1.55841858E+01  6.20671385E+00  2.57648965E+00  5.76963390E-01
  2.29728310E-01  9.51644400E-02  3.46972322E+01  7.95826228E+00  2.37808269E+00
  8.14332080E-01  2.88875470E-01  1.00568240E-01  8.00000000E-01  1.35753497E+04
  2.03523337E+03  4.63225624E+02  1.31200196E+02  4.28530159E+01  1.55841858E+01
  6.20671385E+00  2.57648965E+00  5.76963390E-01  2.29728310E-01  9.51644400E-02
  3.46972322E+01  7.95826228E+00  2.37808269E+00  8.14332080E-01  2.88875470E-01
  1.00568240E-01  8.00000000E-01  1.35753497E+04  2.03523337E+03  4.63225624E+02
  1.31200196E+02  4.28530159E+01  1.55841858E+01  6.20671385E+00  2.57648965E+00
  5.76963390E-01  2.29728310E-01  9.51644400E-02  3.46972322E+01  7.95826228E+00
  2.37808269E+00  8.14332080E-01  2.88875470E-01  1.00568240E-01  8.00000000E-01
  1.35753497E+04  2.03523337E+03  4.63225624E+02  1.31200196E+02  4.28530159E+01
  1.55841858E+01  6.20671385E+00  2.57648965E+00  5.76963390E-01  2.29728310E-01
  9.51644400E-02  3.46972322E+01  7.95826228E+00  2.37808269E+00  8.14332080E-01
  2.88875470E-01  1.00568240E-01  8.00000000E-01  3.40613410E+01  5.12357460E+00
  1.16466260E+00  3.27230410E-01  1.03072410E-01  8.00000000E-01  3.40613410E+01
  5.12357460E+00  1.16466260E+00  3.27230410E-01  1.03072410E-01  8.00000000E-01
  3.40613410E+01  5.12357460E+00  1.16466260E+00  3.27230410E-01  1.03072410E-01
  8.00000000E-01  3.40613410E+01  5.12357460E+00  1.16466260E+00  3.27230410E-01
  1.03072410E-01  8.00000000E-01  3.40613410E+01  5.12357460E+00  1.16466260E+00
  3.27230410E-01  1.03072410E-01  8.00000000E-01  3.40613410E+01  5.12357460E+00
  1.16466260E+00  3.27230410E-01  1.03072410E-01  8.00000000E-01  3.40613410E+01
  5.12357460E+00  1.16466260E+00  3.27230410E-01  1.03072410E-01  8.00000000E-01
  3.40613410E+01  5.12357460E+00  1.16466260E+00  3.27230410E-01  1.03072410E-01
  8.00000000E-01
Contraction coefficients                   R   N=         156
  6.06460097E-04  4.69789846E-03  2.43324735E-02  9.73999560E-02  3.01955844E-01
  6.62336101E-01  6.55953080E-01  3.75856339E-01  1.00000000E+00  1.00000000E+00
  1.00000000E+00  1.13272290E-02  7.61696612E-02  3.01922515E-01  7.27850278E-01
  1.00000000E+00  1.00000000E+00  1.00000000E+00  6.06460097E-04  4.69789846E-03
  2.43324735E-02  9.73999560E-02  3.01955844E-01  6.62336101E-01  6.55953080E-01
  3.75856339E-01  1.00000000E+00  1.00000000E+00  1.00000000E+00  1.13272290E-02
  7.61696612E-02  3.01922515E-01  7.27850278E-01  1.00000000E+00  1.00000000E+00
  1.00000000E+00  6.06460097E-04  4.69789846E-03  2.43324735E-02  9.73999560E-02
  3.01955844E-01  6.62336101E-01  6.55953080E-01  3.75856339E-01  1.00000000E+00
  1.00000000E+00  1.00000000E+00  1.13272290E-02  7.61696612E-02  3.01922515E-01
  7.27850278E-01  1.00000000E+00  1.00000000E+00  1.00000000E+00  6.06460097E-04
  4.69789846E-03  2.43324735E-02  9.73999560E-02  3.01955844E-01  6.62336101E-01
  6.55953080E-01  3.75856339E-01  1.00000000E+00  1.00000000E+00  1.00000000E+00
  1.13272290E-02  7.61696612E-02  3.01922515E-01  7.27850278E-01  1.00000000E+00
  1.00000000E+00  1.00000000E+00  6.06460097E-04  4.69789846E-03  2.43324735E-02
  9.73999560E-02  3.01955844E-01  6.62336101E-01  6.55953080E-01  3.75856339E-01
  1.00000000E+00  1.00000000E+00  1.00000000E+00  1.13272290E-02  7.61696612E-02
  3.01922515E-01  7.27850278E-01  1.00000000E+00  1.00000000E+00  1.00000000E+00
  6.06460097E-04  4.69789846E-03  2.43324735E-02  9.73999560E-02  3.01955844E-01
  6.62336101E-01  6.55953080E-01  3.75856339E-01  1.00000000E+00  1.00000000E+00
  1.00000000E+00  1.13272290E-02  7.61696612E-02  3.01922515E-01  7.27850278E-01
  1.00000000E+00  1.00000000E+00  1.00000000E+00  2.54393072E-02  1.90085949E-01
  8.52441130E-01  1.00000000E+00  1.00000000E+00  1.00000000E+00  2.54393072E-02
  1.90085949E-01  8.52441130E-01  1.00000000E+00  1.00000000E+00  1.00000000E+00
  2.54393072E-02  1.90085949E-01  8.52441130E-01  1.00000000E+00  1.00000000E+00
  1.00000000E+00  2.54393072E-02  1.90085949E-01  8.52441130E-01  1.00000000E+00
  1.00000000E+00  1.00000000E+00  2.54393072E-02  1.90085949E-01  8.52441130E-01
  1.00000000E+00  1.00000000E+00  1.00000000E+00  2.54393072E-02  1.90085949E-01
  8.52441130E-01  1.00000000E+00  1.00000000E+00  1.00000000E+00  2.54393072E-02
  1.90085949E-01  8.52441130E-01  1.00000000E+00  1.00000000E+00  1.00000000E+00
  2.54393072E-02  1.90085949E-01  8.52441130E-01  1.00000000E+00  1.00000000E+00
  1.00000000E+00
Coordinates of each shell                  R   N=         258
 -5.82665194E+00  3.15275734E-01  1.06455826E-06 -5.82665194E+00  3.15275734E-01
  1.06455826E-06 -5.82665194E+00  3.15275734E-01  1.06455826E-06 -5.82665194E+00
  3.15275734E-01  1.06455826E-06 -5.82665194E+00  3.15275734E-01  1.06455826E-06
 -5.82665194E+00  3.15275734E-01  1.06455826E-06 -5.82665194E+00  3.15275734E-01
  1.06455826E-06 -5.82665194E+00  3.15275734E-01  1.06455826E-06 -5.82665194E+00
  3.15275734E-01  1.06455826E-06 -3.52888986E+00 -7.91315773E-01 -9.99153919E-07
 -3.52888986E+00 -7.91315773E-01 -9.99153919E-07 -3.52888986E+00 -7.91315773E-01
 -9.99153919E-07 -3.52888986E+00 -7.91315773E-01 -9.99153919E-07 -3.52888986E+00
 -7.91315773E-01 -9.99153919E-07 -3.52888986E+00 -7.91315773E-01 -9.99153919E-07
 -3.52888986E+00 -7.91315773E-01 -9.99153919E-07 -3.52888986E+00 -7.91315773E-01
 -9.99153919E-07 -3.52888986E+00 -7.91315773E-01 -9.99153919E-07 -1.15555648E+00
  5.62201163E-01 -5.50282637E-07 -1.15555648E+00  5.62201163E-01 -5.50282637E-07
 -1.15555648E+00  5.62201163E-01 -5.50282637E-07 -1.15555648E+00  5.62201163E-01
 -5.50282637E-07 -1.15555648E+00  5.62201163E-01 -5.50282637E-07 -1.15555648E+00
  5.62201163E-01 -5.50282637E-07 -1.15555648E+00  5.62201163E-01 -5.50282637E-07
 -1.15555648E+00  5.62201163E-01 -5.50282637E-07 -1.15555648E+00  5.62201163E-01
 -5.50282637E-07  1.15555660E+00 -5.62201056E-01 -5.51029712E-07  1.15555660E+00
 -5.62201056E-01 -5.51029712E-07  1.15555660E+00 -5.62201056E-01 -5.51029712E-07
  1.15555660E+00 -5.62201056E-01 -5.51029712E-07  1.15555660E+00 -5.62201056E-01
 -5.51029712E-07  1.15555660E+00 -5.62201056E-01 -5.51029712E-07  1.15555660E+00
 -5.62201056E-01 -5.51029712E-07  1.15555660E+00 -5.62201056E-01 -5.51029712E-07
  1.15555660E+00 -5.62201056E-01 -5.51029712E-07  3.52888996E+00  7.91315782E-01
 -9.99091161E-07  3.52888996E+00  7.91315782E-01 -9.99091161E-07  3.52888996E+00
  7.91315782E-01 -9.99091161E-07  3.52888996E+00  7.91315782E-01 -9.99091161E-07
  3.52888996E+00  7.91315782E-01 -9.99091161E-07  3.52888996E+00  7.91315782E-01
 -9.99091161E-07  3.52888996E+00  7.91315782E-01 -9.99091161E-07  3.52888996E+00
  7.91315782E-01 -9.99091161E-07  3.52888996E+00  7.91315782E-01 -9.99091161E-07
  5.82665179E+00 -3.15275840E-01  1.06457223E-06  5.82665179E+00 -3.15275840E-01
  1.06457223E-06  5.82665179E+00 -3.15275840E-01  1.06457223E-06  5.82665179E+00
 -3.15275840E-01  1.06457223E-06  5.82665179E+00 -3.15275840E-01  1.06457223E-06
  5.82665179E+00 -3.15275840E-01  1.06457223E-06  5.82665179E+00 -3.15275840E-01
  1.06457223E-06  5.82665179E+00 -3.15275840E-01  1.06457223E-06  5.82665179E+00
 -3.15275840E-01  1.06457223E-06 -1.25793148E+00  2.63332889E+00 -7.98215927E-07
 -1.25793148E+00  2.63332889E+00 -7.98215927E-07 -1.25793148E+00  2.63332889E+00
 -7.98215927E-07 -1.25793148E+00  2.63332889E+00 -7.98215927E-07  1.25793159E+00
 -2.63332869E+00 -7.98912118E-07  1.25793159E+00 -2.63332869E+00 -7.98912118E-07
  1.25793159E+00 -2.63332869E+00 -7.98912118E-07  1.25793159E+00 -2.63332869E+00
 -7.98912118E-07  3.40998488E+00  2.86037705E+00 -1.74650863E-06  3.40998488E+00
  2.86037705E+00 -1.74650863E-06  3.40998488E+00  2.86037705E+00 -1.74650863E-06
  3.40998488E+00  2.86037705E+00 -1.74650863E-06  6.03143667E+00 -2.37117728E+00
  3.06585759E-06  6.03143667E+00 -2.37117728E+00  3.06585759E-06  6.03143667E+00
 -2.37117728E+00  3.06585759E-06  6.03143667E+00 -2.37117728E+00  3.06585759E-06
  7.56233907E+00  7.96771583E-01  2.39049773E-06  7.56233907E+00  7.96771583E-01
  2.39049773E-06  7.56233907E+00  7.96771583E-01  2.39049773E-06  7.56233907E+00
  7.96771583E-01  2.39049773E-06 -7.56233931E+00 -7.96771929E-01  2.39044395E-06
 -7.56233931E+00 -7.96771929E-01  2.39044395E-06 -7.56233931E+00 -7.96771929E-01
  2.39044395E-06 -7.56233931E+00 -7.96771929E-01  2.39044395E-06 -6.03143711E+00
  2.37117734E+00  3.06545015E-06 -6.03143711E+00  2.37117734E+00  3.06545015E-06
 -6.03143711E+00  2.37117734E+00  3.06545015E-06 -6.03143711E+00  2.37117734E+00
  3.06545015E-06 -3.40998476E+00 -2.86037703E+00 -1.74605114E-06 -3.40998476E+00
 -2.86037703E+00 -1.74605114E-06 -3.40998476E+00 -2.86037703E+00 -1.74605114E-06
 -3.40998476E+00 -2.86037703E+00 -1.74605114E-06
Density Number of contracted shells        I              124
Density Number of primitive shells         I              144
Density Pure/Cartesian d shells            I                0
Density Pure/Cartesian f shells            I                0
Density Highest angular momentum           I                3
Density Largest degree of contraction      I                3
Density Shell types                        I   N=         124
           0           0           0           0           0           0
           0           1           1           1          -2          -2
          -2          -3           0           0           0           0
           0           0           0           1           1           1
          -2          -2          -2          -3           0           0
           0           0           0           0           0           1
           1           1          -2          -2          -2          -3
           0           0           0           0           0           0
           0           1           1           1          -2          -2
          -2          -3           0           0           0           0
           0           0           0           1           1           1
          -2          -2          -2          -3           0           0
           0           0           0           0           0           1
           1           1          -2          -2          -2          -3
           0           0           0           1           1           0
           0           0           1           1           0           0
           0           1           1           0           0           0
           1           1           0           0           0           1
           1           0           0           0           1           1
           0           0           0           1           1           0
           0           0           1           1
Density Number of primitives per shell     I   N=         124
           3           1           1           1           1           1
           1           1           1           1           1           1
           1           1           3           1           1           1
           1           1           1           1           1           1
           1           1           1           1           3           1
           1           1           1           1           1           1
           1           1           1           1           1           1
           3           1           1           1           1           1
           1           1           1           1           1           1
           1           1           3           1           1           1
           1           1           1           1           1           1
           1           1           1           1           3           1
           1           1           1           1           1           1
           1           1           1           1           1           1
           2           1           1           1           1           2
           1           1           1           1           2           1
           1           1           1           2           1           1
           1           1           2           1           1           1
           1           2           1           1           1           1
           2           1           1           1           1           2
           1           1           1           1
Density Shell to atom map                  I   N=         124
           1           1           1           1           1           1
           1           1           1           1           1           1
           1           1           2           2           2           2
           2           2           2           2           2           2
           2           2           2           2           3           3
           3           3           3           3           3           3
           3           3           3           3           3           3
           4           4           4           4           4           4
           4           4           4           4           4           4
           4           4           5           5           5           5
           5           5           5           5           5           5
           5           5           5           5           6           6
           6           6           6           6           6           6
           6           6           6           6           6           6
           7           7           7           7           7           8
           8           8           8           8           9           9
           9           9           9          10          10          10
          10          10          11          11          11          11
          11          12          12          12          12          12
          13          13          13          13          13          14
          14          14          14          14
Density Primitive exponents                R   N=         144
  5.91553927E+02  1.72117940E+02  5.47992590E+01  1.89590940E+01  7.05993000E+00
  2.79484900E+00  1.15863400E+00  4.94324000E-01  2.12969000E-01  3.27847358E-01
  7.86833659E-01  1.97101832E+00  4.01330100E+00  1.24750500E+00  4.08148000E-01
  9.00000000E-01  5.91553927E+02  1.72117940E+02  5.47992590E+01  1.89590940E+01
  7.05993000E+00  2.79484900E+00  1.15863400E+00  4.94324000E-01  2.12969000E-01
  3.27847358E-01  7.86833659E-01  1.97101832E+00  4.01330100E+00  1.24750500E+00
  4.08148000E-01  9.00000000E-01  5.91553927E+02  1.72117940E+02  5.47992590E+01
  1.89590940E+01  7.05993000E+00  2.79484900E+00  1.15863400E+00  4.94324000E-01
  2.12969000E-01  3.27847358E-01  7.86833659E-01  1.97101832E+00  4.01330100E+00
  1.24750500E+00  4.08148000E-01  9.00000000E-01  5.91553927E+02  1.72117940E+02
  5.47992590E+01  1.89590940E+01  7.05993000E+00  2.79484900E+00  1.15863400E+00
  4.94324000E-01  2.12969000E-01  3.27847358E-01  7.86833659E-01  1.97101832E+00
  4.01330100E+00  1.24750500E+00  4.08148000E-01  9.00000000E-01  5.91553927E+02
  1.72117940E+02  5.47992590E+01  1.89590940E+01  7.05993000E+00  2.79484900E+00
  1.15863400E+00  4.94324000E-01  2.12969000E-01  3.27847358E-01  7.86833659E-01
  1.97101832E+00  4.01330100E+00  1.24750500E+00  4.08148000E-01  9.00000000E-01
  5.91553927E+02  1.72117940E+02  5.47992590E+01  1.89590940E+01  7.05993000E+00
  2.79484900E+00  1.15863400E+00  4.94324000E-01  2.12969000E-01  3.27847358E-01
  7.86833659E-01  1.97101832E+00  4.01330100E+00  1.24750500E+00  4.08148000E-01
  9.00000000E-01  9.30813000E+00  2.30671800E+00  7.52012000E-01  2.73978000E-01
  2.03270400E+00  7.90252000E-01  9.30813000E+00  2.30671800E+00  7.52012000E-01
  2.73978000E-01  2.03270400E+00  7.90252000E-01  9.30813000E+00  2.30671800E+00
  7.52012000E-01  2.73978000E-01  2.03270400E+00  7.90252000E-01  9.30813000E+00
  2.30671800E+00  7.52012000E-01  2.73978000E-01  2.03270400E+00  7.90252000E-01
  9.30813000E+00  2.30671800E+00  7.52012000E-01  2.73978000E-01  2.03270400E+00
  7.90252000E-01  9.30813000E+00  2.30671800E+00  7.52012000E-01  2.73978000E-01
  2.03270400E+00  7.90252000E-01  9.30813000E+00  2.30671800E+00  7.52012000E-01
  2.73978000E-01  2.03270400E+00  7.90252000E-01  9.30813000E+00  2.30671800E+00
  7.52012000E-01  2.73978000E-01  2.03270400E+00  7.90252000E-01
Density Contraction coefficients           R   N=         144
  3.37655900E-02  1.73438605E-01  8.10598490E-01  1.00000000E+00  1.00000000E+00
 -1.00000000E+00  1.00000000E+00  1.00000000E+00  1.00000000E+00  1.00000000E+00
  1.00000000E+00  1.00000000E+00  1.00000000E+00  1.00000000E+00  1.00000000E+00
  1.00000000E+00  3.37655900E-02  1.73438605E-01  8.10598490E-01  1.00000000E+00
  1.00000000E+00 -1.00000000E+00  1.00000000E+00  1.00000000E+00  1.00000000E+00
  1.00000000E+00  1.00000000E+00  1.00000000E+00  1.00000000E+00  1.00000000E+00
  1.00000000E+00  1.00000000E+00  3.37655900E-02  1.73438605E-01  8.10598490E-01
  1.00000000E+00  1.00000000E+00 -1.00000000E+00  1.00000000E+00  1.00000000E+00
  1.00000000E+00  1.00000000E+00  1.00000000E+00  1.00000000E+00  1.00000000E+00
  1.00000000E+00  1.00000000E+00  1.00000000E+00  3.37655900E-02  1.73438605E-01
  8.10598490E-01  1.00000000E+00  1.00000000E+00 -1.00000000E+00  1.00000000E+00
  1.00000000E+00  1.00000000E+00  1.00000000E+00  1.00000000E+00  1.00000000E+00
  1.00000000E+00  1.00000000E+00  1.00000000E+00  1.00000000E+00  3.37655900E-02
  1.73438605E-01  8.10598490E-01  1.00000000E+00  1.00000000E+00 -1.00000000E+00
  1.00000000E+00  1.00000000E+00  1.00000000E+00  1.00000000E+00  1.00000000E+00
  1.00000000E+00  1.00000000E+00  1.00000000E+00  1.00000000E+00  1.00000000E+00
  3.37655900E-02  1.73438605E-01  8.10598490E-01  1.00000000E+00  1.00000000E+00
 -1.00000000E+00  1.00000000E+00  1.00000000E+00  1.00000000E+00  1.00000000E+00
  1.00000000E+00  1.00000000E+00  1.00000000E+00  1.00000000E+00  1.00000000E+00
  1.00000000E+00  1.24263202E-01  8.87440420E-01  1.00000000E+00  1.00000000E+00
  1.00000000E+00  1.00000000E+00  1.24263202E-01  8.87440420E-01  1.00000000E+00
  1.00000000E+00  1.00000000E+00  1.00000000E+00  1.24263202E-01  8.87440420E-01
  1.00000000E+00  1.00000000E+00  1.00000000E+00  1.00000000E+00  1.24263202E-01
  8.87440420E-01  1.00000000E+00  1.00000000E+00  1.00000000E+00  1.00000000E+00
  1.24263202E-01  8.87440420E-01  1.00000000E+00  1.00000000E+00  1.00000000E+00
  1.00000000E+00  1.24263202E-01  8.87440420E-01  1.00000000E+00  1.00000000E+00
  1.00000000E+00  1.00000000E+00  1.24263202E-01  8.87440420E-01  1.00000000E+00
  1.00000000E+00  1.00000000E+00  1.00000000E+00  1.24263202E-01  8.87440420E-01
  1.00000000E+00  1.00000000E+00  1.00000000E+00  1.00000000E+00
Density Coordinates of each shell          R   N=         372
 -5.82665194E+00  3.15275734E-01  1.06455826E-06 -5.82665194E+00  3.15275734E-01
  1.06455826E-06 -5.82665194E+00  3.15275734E-01  1.06455826E-06 -5.82665194E+00
  3.15275734E-01  1.06455826E-06 -5.82665194E+00  3.15275734E-01  1.06455826E-06
 -5.82665194E+00  3.15275734E-01  1.06455826E-06 -5.82665194E+00  3.15275734E-01
  1.06455826E-06 -5.82665194E+00  3.15275734E-01  1.06455826E-06 -5.82665194E+00
  3.15275734E-01  1.06455826E-06 -5.82665194E+00  3.15275734E-01  1.06455826E-06
 -5.82665194E+00  3.15275734E-01  1.06455826E-06 -5.82665194E+00  3.15275734E-01
  1.06455826E-06 -5.82665194E+00  3.15275734E-01  1.06455826E-06 -5.82665194E+00
  3.15275734E-01  1.06455826E-06 -3.52888986E+00 -7.91315773E-01 -9.99153919E-07
 -3.52888986E+00 -7.91315773E-01 -9.99153919E-07 -3.52888986E+00 -7.91315773E-01
 -9.99153919E-07 -3.52888986E+00 -7.91315773E-01 -9.99153919E-07 -3.52888986E+00
 -7.91315773E-01 -9.99153919E-07 -3.52888986E+00 -7.91315773E-01 -9.99153919E-07
 -3.52888986E+00 -7.91315773E-01 -9.99153919E-07 -3.52888986E+00 -7.91315773E-01
 -9.99153919E-07 -3.52888986E+00 -7.91315773E-01 -9.99153919E-07 -3.52888986E+00
 -7.91315773E-01 -9.99153919E-07 -3.52888986E+00 -7.91315773E-01 -9.99153919E-07
 -3.52888986E+00 -7.91315773E-01 -9.99153919E-07 -3.52888986E+00 -7.91315773E-01
 -9.99153919E-07 -3.52888986E+00 -7.91315773E-01 -9.99153919E-07 -1.15555648E+00
  5.62201163E-01 -5.50282637E-07 -1.15555648E+00  5.62201163E-01 -5.50282637E-07
 -1.15555648E+00  5.62201163E-01 -5.50282637E-07 -1.15555648E+00  5.62201163E-01
 -5.50282637E-07 -1.15555648E+00  5.62201163E-01 -5.50282637E-07 -1.15555648E+00
  5.62201163E-01 -5.50282637E-07 -1.15555648E+00  5.62201163E-01 -5.50282637E-07
 -1.15555648E+00  5.62201163E-01 -5.50282637E-07 -1.15555648E+00  5.62201163E-01