 Entering Gaussian System, Link 0=g09
 Input=freq.com
 Output=freq.log
 Initial command:
 /home/diegoa/progs/g09/l1.exe /home/diegoa/g09scratch/Gau-24426.inp -scrdir=/home/diegoa/g09scratch/
 Default is to use a total of   4 processors:
                                4 via shared-memory
                                1 via Linda
 Entering Link 1 = /home/diegoa/progs/g09/l1.exe PID=     24429.
  
 Copyright (c) 1988,1990,1992,1993,1995,1998,2003,2009, Gaussian, Inc.
                  All Rights Reserved.
  
 This is part of the Gaussian(R) 09 program.  It is based on
 the Gaussian(R) 03 system (copyright 2003, Gaussian, Inc.),
 the Gaussian(R) 98 system (copyright 1998, Gaussian, Inc.),
 the Gaussian(R) 94 system (copyright 1995, Gaussian, Inc.),
 the Gaussian 92(TM) system (copyright 1992, Gaussian, Inc.),
 the Gaussian 90(TM) system (copyright 1990, Gaussian, Inc.),
 the Gaussian 88(TM) system (copyright 1988, Gaussian, Inc.),
 the Gaussian 86(TM) system (copyright 1986, Carnegie Mellon
 University), and the Gaussian 82(TM) system (copyright 1983,
 Carnegie Mellon University). Gaussian is a federally registered
 trademark of Gaussian, Inc.
  
 This software contains proprietary and confidential information,
 including trade secrets, belonging to Gaussian, Inc.
  
 This software is provided under written license and may be
 used, copied, transmitted, or stored only in accord with that
 written license.
  
 The following legend is applicable only to US Government
 contracts under FAR:
  
                    RESTRICTED RIGHTS LEGEND
  
 Use, reproduction and disclosure by the US Government is
 subject to restrictions as set forth in subparagraphs (a)
 and (c) of the Commercial Computer Software - Restricted
 Rights clause in FAR 52.227-19.
  
 Gaussian, Inc.
 340 Quinnipiac St., Bldg. 40, Wallingford CT 06492
  
  
 ---------------------------------------------------------------
 Warning -- This program may not be used in any manner that
 competes with the business of Gaussian, Inc. or will provide
 assistance to any competitor of Gaussian, Inc.  The licensee
 of this program is prohibited from giving any competitor of
 Gaussian, Inc. access to this program.  By using this program,
 the user acknowledges that Gaussian, Inc. is engaged in the
 business of creating and licensing software in the field of
 computational chemistry and represents and warrants to the
 licensee that it is not a competitor of Gaussian, Inc. and that
 it will not use this program in any manner prohibited above.
 ---------------------------------------------------------------
  

 Cite this work as:
 Gaussian 09, Revision A.01,
 M. J. Frisch, G. W. Trucks, H. B. Schlegel, G. E. Scuseria, 
 M. A. Robb, J. R. Cheeseman, G. Scalmani, V. Barone, B. Mennucci, 
 G. A. Petersson, H. Nakatsuji, M. Caricato, X. Li, H. P. Hratchian, 
 A. F. Izmaylov, J. Bloino, G. Zheng, J. L. Sonnenberg, M. Hada, 
 M. Ehara, K. Toyota, R. Fukuda, J. Hasegawa, M. Ishida, T. Nakajima, 
 Y. Honda, O. Kitao, H. Nakai, T. Vreven, J. A. Montgomery, Jr., 
 J. E. Peralta, F. Ogliaro, M. Bearpark, J. J. Heyd, E. Brothers, 
 K. N. Kudin, V. N. Staroverov, R. Kobayashi, J. Normand, 
 K. Raghavachari, A. Rendell, J. C. Burant, S. S. Iyengar, J. Tomasi, 
 M. Cossi, N. Rega, J. M. Millam, M. Klene, J. E. Knox, J. B. Cross, 
 V. Bakken, C. Adamo, J. Jaramillo, R. Gomperts, R. E. Stratmann, 
 O. Yazyev, A. J. Austin, R. Cammi, C. Pomelli, J. W. Ochterski, 
 R. L. Martin, K. Morokuma, V. G. Zakrzewski, G. A. Voth, 
 P. Salvador, J. J. Dannenberg, S. Dapprich, A. D. Daniels, 
 O. Farkas, J. B. Foresman, J. V. Ortiz, J. Cioslowski, 
 and D. J. Fox, Gaussian, Inc., Wallingford CT, 2009.
 
 ******************************************
 Gaussian 09:  EM64L-G09RevA.01  8-May-2009
                 4-Oct-2019 
 ******************************************
 %chk=freq.chk
 %nProcShared=4
 Will use up to    4 processors via shared memory.
 Default route:  MP2=Direct MaxDisk=1000GB DenFit
 ------------------------------------
 # bp86/TZVP Freq=savenormalmodes opt
 ------------------------------------
 1/14=-1,18=20,19=15,26=3,38=1/1,3;
 2/9=110,12=2,17=6,18=5,40=1/2;
 3/5=19,7=101,11=2,16=1,25=1,30=1,71=1,74=404,82=47/1,2,3;
 4//1;
 5/5=2,38=5/2;
 6/7=2,8=2,9=2,10=2,28=1/1;
 7/92=1/1,2,3,16;
 1/14=-1,18=20,19=15/3(2);
 2/9=110/2;
 99//99;
 2/9=110/2;
 3/5=19,7=101,11=2,16=1,25=1,30=1,71=1,74=404,82=47/1,2,3;
 4/5=5,16=3/1;
 5/5=2,38=5/2;
 7/92=1/1,2,3,16;
 1/14=-1,18=20,19=15/3(-5);
 2/9=110/2;
 6/7=2,8=2,9=2,10=2,19=2,28=1/1;
 99/9=1/99;
 -----
 Title
 -----
 Symbolic Z-matrix:
 Charge =  0 Multiplicity = 1
 6                     3.07611  -0.16755   0.00003 
 6                     1.86812   0.41946  -0.00001 
 6                     0.60736  -0.29696  -0.00003 
 6                    -0.60736   0.29696  -0.00003 
 6                    -1.86812  -0.41946  -0.00001 
 6                    -3.07611   0.16755   0.00003 
 1                     0.66336  -1.38657  -0.00004 
 1                    -0.66336   1.38657  -0.00004 
 1                    -1.80551  -1.50822  -0.00001 
 1                    -3.18232   1.25011   0.00003 
 1                    -3.99363  -0.41265   0.00005 
 1                     3.99363   0.41264   0.00005 
 1                     3.18232  -1.25011   0.00003 
 1                     1.80551   1.50822  -0.00001 
 

 GradGradGradGradGradGradGradGradGradGradGradGradGradGradGradGradGradGrad
 Berny optimization.
 Initialization pass.
                           ----------------------------
                           !    Initial Parameters    !
                           ! (Angstroms and Degrees)  !
 --------------------------                            --------------------------
 ! Name  Definition              Value          Derivative Info.                !
 --------------------------------------------------------------------------------
 ! R1    R(1,2)                  1.3431         estimate D2E/DX2                !
 ! R2    R(1,12)                 1.0856         estimate D2E/DX2                !
 ! R3    R(1,13)                 1.0878         estimate D2E/DX2                !
 ! R4    R(2,3)                  1.4501         estimate D2E/DX2                !
 ! R5    R(2,14)                 1.0906         estimate D2E/DX2                !
 ! R6    R(3,4)                  1.3521         estimate D2E/DX2                !
 ! R7    R(3,7)                  1.0911         estimate D2E/DX2                !
 ! R8    R(4,5)                  1.4501         estimate D2E/DX2                !
 ! R9    R(4,8)                  1.0911         estimate D2E/DX2                !
 ! R10   R(5,6)                  1.3431         estimate D2E/DX2                !
 ! R11   R(5,9)                  1.0906         estimate D2E/DX2                !
 ! R12   R(6,10)                 1.0878         estimate D2E/DX2                !
 ! R13   R(6,11)                 1.0856         estimate D2E/DX2                !
 ! A1    A(2,1,12)             121.7759         estimate D2E/DX2                !
 ! A2    A(2,1,13)             121.5202         estimate D2E/DX2                !
 ! A3    A(12,1,13)            116.704          estimate D2E/DX2                !
 ! A4    A(1,2,3)              124.4762         estimate D2E/DX2                !
 ! A5    A(1,2,14)             119.2083         estimate D2E/DX2                !
 ! A6    A(3,2,14)             116.3155         estimate D2E/DX2                !
 ! A7    A(2,3,4)              124.3379         estimate D2E/DX2                !
 ! A8    A(2,3,7)              116.6648         estimate D2E/DX2                !
 ! A9    A(4,3,7)              118.9973         estimate D2E/DX2                !
 ! A10   A(3,4,5)              124.3379         estimate D2E/DX2                !
 ! A11   A(3,4,8)              118.9973         estimate D2E/DX2                !
 ! A12   A(5,4,8)              116.6648         estimate D2E/DX2                !
 ! A13   A(4,5,6)              124.4762         estimate D2E/DX2                !
 ! A14   A(4,5,9)              116.3155         estimate D2E/DX2                !
 ! A15   A(6,5,9)              119.2083         estimate D2E/DX2                !
 ! A16   A(5,6,10)             121.5202         estimate D2E/DX2                !
 ! A17   A(5,6,11)             121.7758         estimate D2E/DX2                !
 ! A18   A(10,6,11)            116.704          estimate D2E/DX2                !
 ! D1    D(12,1,2,3)          -179.9994         estimate D2E/DX2                !
 ! D2    D(12,1,2,14)            0.0003         estimate D2E/DX2                !
 ! D3    D(13,1,2,3)             0.0008         estimate D2E/DX2                !
 ! D4    D(13,1,2,14)         -179.9995         estimate D2E/DX2                !
 ! D5    D(1,2,3,4)            179.9983         estimate D2E/DX2                !
 ! D6    D(1,2,3,7)             -0.001          estimate D2E/DX2                !
 ! D7    D(14,2,3,4)            -0.0014         estimate D2E/DX2                !
 ! D8    D(14,2,3,7)           179.9992         estimate D2E/DX2                !
 ! D9    D(2,3,4,5)           -179.9978         estimate D2E/DX2                !
 ! D10   D(2,3,4,8)              0.0016         estimate D2E/DX2                !
 ! D11   D(7,3,4,5)              0.0016         estimate D2E/DX2                !
 ! D12   D(7,3,4,8)           -179.999          estimate D2E/DX2                !
 ! D13   D(3,4,5,6)            179.9983         estimate D2E/DX2                !
 ! D14   D(3,4,5,9)             -0.0014         estimate D2E/DX2                !
 ! D15   D(8,4,5,6)             -0.001          estimate D2E/DX2                !
 ! D16   D(8,4,5,9)            179.9992         estimate D2E/DX2                !
 ! D17   D(4,5,6,10)             0.0008         estimate D2E/DX2                !
 ! D18   D(4,5,6,11)          -179.9994         estimate D2E/DX2                !
 ! D19   D(9,5,6,10)          -179.9995         estimate D2E/DX2                !
 ! D20   D(9,5,6,11)             0.0003         estimate D2E/DX2                !
 --------------------------------------------------------------------------------
 Trust Radius=3.00D-01 FncErr=1.00D-07 GrdErr=1.00D-06
 Number of steps in this run=  61 maximum allowed number of steps= 100.
 GradGradGradGradGradGradGradGradGradGradGradGradGradGradGradGradGradGrad

                          Input orientation:                          
 ---------------------------------------------------------------------
 Center     Atomic      Atomic             Coordinates (Angstroms)
 Number     Number       Type             X           Y           Z
 ---------------------------------------------------------------------
      1          6           0        3.076112   -0.167551    0.000027
      2          6           0        1.868124    0.419457   -0.000005
      3          6           0        0.607363   -0.296955   -0.000028
      4          6           0       -0.607363    0.296956   -0.000028
      5          6           0       -1.868124   -0.419457   -0.000005
      6          6           0       -3.076112    0.167551    0.000027
      7          1           0        0.663363   -1.386571   -0.000036
      8          1           0       -0.663363    1.386571   -0.000036
      9          1           0       -1.805510   -1.508224   -0.000010
     10          1           0       -3.182321    1.250111    0.000025
     11          1           0       -3.993633   -0.412645    0.000053
     12          1           0        3.993633    0.412644    0.000053
     13          1           0        3.182320   -1.250111    0.000025
     14          1           0        1.805511    1.508224   -0.000010
 ---------------------------------------------------------------------
                    Distance matrix (angstroms):
                    1          2          3          4          5
     1  C    0.000000
     2  C    1.343061   0.000000
     3  C    2.472138   1.450091   0.000000
     4  C    3.712648   2.478516   1.352143   0.000000
     5  C    4.950649   3.829272   2.478516   1.450092   0.000000
     6  C    6.161343   4.950649   3.712648   2.472138   1.343061
     7  H    2.703214   2.170987   1.091054   2.109267   2.709933
     8  H    4.049564   2.709933   2.109266   1.091053   2.170987
     9  H    5.062375   4.148679   2.699839   2.166617   1.090566
    10  H    6.416989   5.118299   4.093302   2.745708   2.124752
    11  H    7.073992   5.920523   4.602450   3.459821   2.125520
    12  H    1.085574   2.125520   3.459820   4.602450   5.920523
    13  H    1.087757   2.124751   2.745708   4.093301   5.118298
    14  H    2.103009   1.090566   2.166617   2.699839   4.148680
                    6          7          8          9         10
     6  C    0.000000
     7  H    4.049564   0.000000
     8  H    2.703214   3.074170   0.000000
     9  H    2.103010   2.471868   3.111967   0.000000
    10  H    1.087758   4.662765   2.522652   3.082859   0.000000
    11  H    1.085575   4.757746   3.785218   2.447075   1.850131
    12  H    7.073992   3.785218   4.757746   6.108993   7.224657
    13  H    6.416988   2.522651   4.662764   4.994504   6.838111
    14  H    5.062376   3.111967   2.471869   4.705149   4.994506
                   11         12         13         14
    11  H    0.000000
    12  H    8.029790   0.000000
    13  H    7.224656   1.850131   0.000000
    14  H    6.108994   2.447074   3.082858   0.000000
 Stoichiometry    C6H8
 Framework group  C1[X(C6H8)]
 Deg. of freedom    36
 Full point group                 C1      NOp   1
 Largest Abelian subgroup         C1      NOp   1
 Largest concise Abelian subgroup C1      NOp   1
                         Standard orientation:                         
 ---------------------------------------------------------------------
 Center     Atomic      Atomic             Coordinates (Angstroms)
 Number     Number       Type             X           Y           Z
 ---------------------------------------------------------------------
      1          6           0       -3.076112    0.167551    0.000027
      2          6           0       -1.868124   -0.419457   -0.000005
      3          6           0       -0.607363    0.296955   -0.000028
      4          6           0        0.607363   -0.296956   -0.000028
      5          6           0        1.868124    0.419457   -0.000005
      6          6           0        3.076112   -0.167551    0.000027
      7          1           0       -0.663363    1.386571   -0.000036
      8          1           0        0.663363   -1.386571   -0.000036
      9          1           0        1.805510    1.508224   -0.000010
     10          1           0        3.182321   -1.250111    0.000025
     11          1           0        3.993633    0.412645    0.000053
     12          1           0       -3.993633   -0.412644    0.000053
     13          1           0       -3.182320    1.250111    0.000025
     14          1           0       -1.805511   -1.508224   -0.000010
 ---------------------------------------------------------------------
 Rotational constants (GHZ):     26.6503372      1.3308861      1.2675845
 Standard basis: TZVP (5D, 7F)
 There are   162 symmetry adapted basis functions of A   symmetry.
 Integral buffers will be    131072 words long.
 Raffenetti 2 integral format.
 Two-electron integral symmetry is turned on.
   162 basis functions,   274 primitive gaussians,   168 cartesian basis functions
    22 alpha electrons       22 beta electrons
       nuclear repulsion energy       193.6362050878 Hartrees.
 NAtoms=   14 NActive=   14 NUniq=   14 SFac= 7.50D-01 NAtFMM=   80 NAOKFM=F Big=F
 Standard density basis: TZVPFit (5D, 7F)
   300 Density fitting functions
 There are   300 symmetry adapted density basis functions of A   symmetry.
 One-electron integrals computed using PRISM.
 NBasis=   162 RedAO= T  NBF=   162
 NBsUse=   162 1.00D-06 NBFU=   162
 NBasis=      162 NBas6D=      168 NTT=       13203   NTT6D=    14196
 NDBShl=      124 NDBF=        300 NDBF6D=      336  NNucDB=        0
 IDenFi=        2 ISolve=        0 FullAP=F BlkAPC=T NucTyp=        0
 TolInv= 1.00D-05 TolIt=  1.00D-10 IR12=0.
 Petite list used in FoFDir.
 MinBra= 0 MaxBra= 3 Meth= 1.
 IRaf=       0 NMat=   1 IRICut=       1 DoRegI=T DoRafI=F ISym2E= 1 JSym2E=1.
  NDBF=   300  NBFD=   300
 NRank=   300 NBFDU=   300
 S*AI*S=  6.76755793709    
 Harris functional with IExCor=  404 diagonalized for initial guess.
 ExpMin= 9.52D-02 ExpMax= 1.36D+04 ExpMxC= 4.63D+02 IAcc=2 IRadAn=         0 AccDes= 0.00D+00
 HarFok:  IExCor=  404 AccDes= 0.00D+00 IRadAn=         0 IDoV= 1
 ScaDFX=  1.000000  1.000000  1.000000  1.000000
 FoFCou: FMM=F IPFlag=           0 FMFlag=      100000 FMFlg1=           0
         NFxFlg=           0 DoJE=T BraDBF=F KetDBF=T FulRan=T
         Omega=  0.000000  0.000000  1.000000  0.000000  0.000000 ICntrl=     500 IOpCl=  0
         NMat0=    1 NMatS0=    1 NMatT0=    0 NMatD0=    1 NMtDS0=    0 NMtDT0=    0
         I1Cent=           4 NGrid=           0.
 Petite list used in FoFCou.
 Initial guess orbital symmetries:
       Occupied  (A) (A) (A) (A) (A) (A) (A) (A) (A) (A) (A) (A)
                 (A) (A) (A) (A) (A) (A) (A) (A) (A) (A)
       Virtual   (A) (A) (A) (A) (A) (A) (A) (A) (A) (A) (A) (A)
                 (A) (A) (A) (A) (A) (A) (A) (A) (A) (A) (A) (A)
                 (A) (A) (A) (A) (A) (A) (A) (A) (A) (A) (A) (A)
                 (A) (A) (A) (A) (A) (A) (A) (A) (A) (A) (A) (A)
                 (A) (A) (A) (A) (A) (A) (A) (A) (A) (A) (A) (A)
                 (A) (A) (A) (A) (A) (A) (A) (A) (A) (A) (A) (A)
                 (A) (A) (A) (A) (A) (A) (A) (A) (A) (A) (A) (A)
                 (A) (A) (A) (A) (A) (A) (A) (A) (A) (A) (A) (A)
                 (A) (A) (A) (A) (A) (A) (A) (A) (A) (A) (A) (A)
                 (A) (A) (A) (A) (A) (A) (A) (A) (A) (A) (A) (A)
                 (A) (A) (A) (A) (A) (A) (A) (A) (A) (A) (A) (A)
                 (A) (A) (A) (A) (A) (A) (A) (A)
 The electronic state of the initial guess is 1-A.
 Requested convergence on RMS density matrix=1.00D-08 within 128 cycles.
 Requested convergence on MAX density matrix=1.00D-06.
 Requested convergence on             energy=1.00D-06.
 No special actions if energy rises.
 FoFCou: FMM=F IPFlag=           0 FMFlag=      100000 FMFlg1=           0
         NFxFlg=           0 DoJE=T BraDBF=T KetDBF=F FulRan=T
         Omega=  0.000000  0.000000  1.000000  0.000000  0.000000 ICntrl=     500 IOpCl=  0
         NMat0=    1 NMatS0=    1 NMatT0=    0 NMatD0=    1 NMtDS0=    0 NMtDT0=    0
         I1Cent=           5 NGrid=           0.
 Symmetry not used in FoFCou.
 Initial convergence to 1.0D-05 achieved.  Increase integral accuracy.
 SCF Done:  E(RB-P86) =  -233.469555053     A.U. after   13 cycles
             Convg  =    0.5734D-08             -V/T =  2.0048

 **********************************************************************

            Population analysis using the SCF density.

 **********************************************************************

 Orbital symmetries:
       Occupied  (A) (A) (A) (A) (A) (A) (A) (A) (A) (A) (A) (A)
                 (A) (A) (A) (A) (A) (A) (A) (A) (A) (A)
       Virtual   (A) (A) (A) (A) (A) (A) (A) (A) (A) (A) (A) (A)
                 (A) (A) (A) (A) (A) (A) (A) (A) (A) (A) (A) (A)
                 (A) (A) (A) (A) (A) (A) (A) (A) (A) (A) (A) (A)
                 (A) (A) (A) (A) (A) (A) (A) (A) (A) (A) (A) (A)
                 (A) (A) (A) (A) (A) (A) (A) (A) (A) (A) (A) (A)
                 (A) (A) (A) (A) (A) (A) (A) (A) (A) (A) (A) (A)
                 (A) (A) (A) (A) (A) (A) (A) (A) (A) (A) (A) (A)
                 (A) (A) (A) (A) (A) (A) (A) (A) (A) (A) (A) (A)
                 (A) (A) (A) (A) (A) (A) (A) (A) (A) (A) (A) (A)
                 (A) (A) (A) (A) (A) (A) (A) (A) (A) (A) (A) (A)
                 (A) (A) (A) (A) (A) (A) (A) (A) (A) (A) (A) (A)
                 (A) (A) (A) (A) (A) (A) (A) (A)
 The electronic state is 1-A.
 Alpha  occ. eigenvalues --   -9.90772  -9.90771  -9.90721  -9.90667  -9.89704
 Alpha  occ. eigenvalues --   -9.89703  -0.75170  -0.71312  -0.65796  -0.56621
 Alpha  occ. eigenvalues --   -0.50861  -0.50311  -0.44173  -0.41811  -0.38826
 Alpha  occ. eigenvalues --   -0.36485  -0.34254  -0.32352  -0.31342  -0.30887
 Alpha  occ. eigenvalues --   -0.26711  -0.19903
 Alpha virt. eigenvalues --   -0.08654  -0.00803   0.02690   0.03489   0.05509
 Alpha virt. eigenvalues --    0.05932   0.07310   0.08724   0.10577   0.11564
 Alpha virt. eigenvalues --    0.12744   0.14773   0.16321   0.17555   0.17881
 Alpha virt. eigenvalues --    0.19236   0.20845   0.21019   0.23639   0.24054
 Alpha virt. eigenvalues --    0.25709   0.26185   0.26233   0.27821   0.30155
 Alpha virt. eigenvalues --    0.32735   0.33488   0.33662   0.33835   0.36435
 Alpha virt. eigenvalues --    0.39236   0.41270   0.41919   0.42246   0.43443
 Alpha virt. eigenvalues --    0.44538   0.45541   0.47758   0.52129   0.52723
 Alpha virt. eigenvalues --    0.53640   0.55817   0.58292   0.60664   0.61162
 Alpha virt. eigenvalues --    0.63501   0.68181   0.68475   1.12105   1.13065
 Alpha virt. eigenvalues --    1.14279   1.16146   1.18139   1.18929   1.19818
 Alpha virt. eigenvalues --    1.19937   1.21251   1.21539   1.22970   1.23100
 Alpha virt. eigenvalues --    1.23114   1.24470   1.31039   1.32974   1.34965
 Alpha virt. eigenvalues --    1.35969   1.36646   1.36692   1.39150   1.39445
 Alpha virt. eigenvalues --    1.39812   1.41386   1.41510   1.43723   1.48270
 Alpha virt. eigenvalues --    1.54334   1.54343   1.62396   1.65309   1.67773
 Alpha virt. eigenvalues --    1.68692   1.71044   1.73749   1.73849   1.76599
 Alpha virt. eigenvalues --    1.77291   1.77334   1.78012   1.78200   1.81729
 Alpha virt. eigenvalues --    1.84556   1.85977   1.87143   1.92827   1.98745
 Alpha virt. eigenvalues --    1.99309   1.99616   2.04039   2.07220   2.08607
 Alpha virt. eigenvalues --    2.14969   2.20176   2.20860   2.20871   2.26860
 Alpha virt. eigenvalues --    2.33627   2.36316   2.39236   2.41338   2.43320
 Alpha virt. eigenvalues --    2.49082   2.49327   2.49817   2.54070   2.55072
 Alpha virt. eigenvalues --    2.55816   2.60318   2.64607   2.68186   2.69067
 Alpha virt. eigenvalues --    2.71260   2.90800   2.93275   2.93625   2.96084
 Alpha virt. eigenvalues --    3.02440   3.05739   3.08686   3.11809   3.17597
 Alpha virt. eigenvalues --    3.30034   3.32457   3.48578   3.52207  21.17321
 Alpha virt. eigenvalues --   21.34658  21.49113  21.81706  21.85948  21.87212
          Condensed to atoms (all electrons):
              1          2          3          4          5          6
     1  C    4.994545   0.559231  -0.046907   0.009176  -0.002170   0.000161
     2  C    0.559231   4.916176   0.360550  -0.011606   0.012885  -0.002170
     3  C   -0.046907   0.360550   5.000037   0.516640  -0.011606   0.009176
     4  C    0.009176  -0.011606   0.516640   5.000037   0.360550  -0.046907
     5  C   -0.002170   0.012885  -0.011606   0.360550   4.916176   0.559231
     6  C    0.000161  -0.002170   0.009176  -0.046907   0.559231   4.994545
     7  H   -0.000226  -0.061574   0.410563  -0.051841  -0.009083   0.002724
     8  H    0.002724  -0.009083  -0.051841   0.410563  -0.061574  -0.000226
     9  H    0.000089   0.001720  -0.005035  -0.059527   0.402894  -0.037241
    10  H    0.000007   0.000015   0.003041  -0.011459  -0.058466   0.417023
    11  H   -0.000002   0.000057  -0.001470   0.011496  -0.026922   0.396669
    12  H    0.396669  -0.026922   0.011496  -0.001470   0.000057  -0.000002
    13  H    0.417023  -0.058466  -0.011459   0.003041   0.000015   0.000007
    14  H   -0.037241   0.402894  -0.059527  -0.005035   0.001720   0.000089
              7          8          9         10         11         12
     1  C   -0.000226   0.002724   0.000089   0.000007  -0.000002   0.396669
     2  C   -0.061574  -0.009083   0.001720   0.000015   0.000057  -0.026922
     3  C    0.410563  -0.051841  -0.005035   0.003041  -0.001470   0.011496
     4  C   -0.051841   0.410563  -0.059527  -0.011459   0.011496  -0.001470
     5  C   -0.009083  -0.061574   0.402894  -0.058466  -0.026922   0.000057
     6  C    0.002724  -0.000226  -0.037241   0.417023   0.396669  -0.000002
     7  H    0.565046   0.007104   0.003406   0.000044  -0.000045  -0.000003
     8  H    0.007104   0.565045   0.005772   0.003951  -0.000003  -0.000045
     9  H    0.003406   0.005772   0.564755   0.007174  -0.009125  -0.000001
    10  H    0.000044   0.003951   0.007174   0.550569  -0.038038   0.000000
    11  H   -0.000045  -0.000003  -0.009125  -0.038038   0.542294   0.000000
    12  H   -0.000003  -0.000045  -0.000001   0.000000   0.000000   0.542294
    13  H    0.003951   0.000044   0.000020   0.000000   0.000000  -0.038038
    14  H    0.005772   0.003406   0.000027   0.000020  -0.000001  -0.009125
             13         14
     1  C    0.417023  -0.037241
     2  C   -0.058466   0.402894
     3  C   -0.011459  -0.059527
     4  C    0.003041  -0.005035
     5  C    0.000015   0.001720
     6  C    0.000007   0.000089
     7  H    0.003951   0.005772
     8  H    0.000044   0.003406
     9  H    0.000020   0.000027
    10  H    0.000000   0.000020
    11  H    0.000000  -0.000001
    12  H   -0.038038  -0.009125
    13  H    0.550569   0.007174
    14  H    0.007174   0.564755
 Mulliken atomic charges:
              1
     1  C   -0.293079
     2  C   -0.083706
     3  C   -0.123658
     4  C   -0.123657
     5  C   -0.083706
     6  C   -0.293078
     7  H    0.124161
     8  H    0.124161
     9  H    0.125073
    10  H    0.126120
    11  H    0.125088
    12  H    0.125088
    13  H    0.126119
    14  H    0.125073
 Sum of Mulliken atomic charges =   0.00000
 Mulliken charges with hydrogens summed into heavy atoms:
              1
     1  C   -0.041871
     2  C    0.041367
     3  C    0.000503
     4  C    0.000504
     5  C    0.041367
     6  C   -0.041871
 Sum of Mulliken charges with hydrogens summed into heavy atoms =   0.00000
 Electronic spatial extent (au):  <R**2>=            920.7260
 Charge=              0.0000 electrons
 Dipole moment (field-independent basis, Debye):
    X=              0.0000    Y=              0.0000    Z=              0.0000  Tot=              0.0000
 Quadrupole moment (field-independent basis, Debye-Ang):
   XX=            -34.6133   YY=            -33.6792   ZZ=            -42.4459
   XY=              0.0590   XZ=              0.0000   YZ=              0.0000
 Traceless Quadrupole moment (field-independent basis, Debye-Ang):
   XX=              2.2995   YY=              3.2336   ZZ=             -5.5331
   XY=              0.0590   XZ=              0.0000   YZ=              0.0000
 Octapole moment (field-independent basis, Debye-Ang**2):
  XXX=              0.0000  YYY=              0.0000  ZZZ=              0.0000  XYY=              0.0000
  XXY=              0.0000  XXZ=              0.0008  XZZ=              0.0000  YZZ=              0.0000
  YYZ=             -0.0001  XYZ=              0.0001
 Hexadecapole moment (field-independent basis, Debye-Ang**3):
 XXXX=          -1064.1501 YYYY=           -100.9689 ZZZZ=            -51.3057 XXXY=             11.3765
 XXXZ=              0.0000 YYYX=             -1.8618 YYYZ=              0.0000 ZZZX=              0.0000
 ZZZY=              0.0000 XXYY=           -193.9806 XXZZ=           -229.1149 YYZZ=            -28.6664
 XXYZ=              0.0000 YYXZ=              0.0000 ZZXY=             -0.0740
 N-N= 1.936362050878D+02 E-N=-9.280278870792D+02  KE= 2.323580697674D+02
 Calling FoFJK, ICntrl=      2527 FMM=F ISym2X=0 I1Cent= 4 IOpClX= 0 NMat=1 NMatS=1 NMatT=0.
 ***** Axes restored to original set *****
 -------------------------------------------------------------------
 Center     Atomic                   Forces (Hartrees/Bohr)
 Number     Number              X              Y              Z
 -------------------------------------------------------------------
      1        6           0.002742583   -0.001117833   -0.000000363
      2        6          -0.006717394   -0.001909796   -0.000000776
      3        6           0.007449106    0.001665931   -0.000000028
      4        6          -0.007449229   -0.001666754   -0.000000028
      5        6           0.006717674    0.001910108   -0.000000776
      6        6          -0.002742940    0.001117531   -0.000000363
      7        1           0.000110584   -0.004011953    0.000000576
      8        1          -0.000110652    0.004012572    0.000000576
      9        1           0.000195311   -0.003914195    0.000000316
     10        1          -0.000152237    0.003731441    0.000000311
     11        1          -0.002910320   -0.002150865   -0.000000038
     12        1           0.002910587    0.002151084   -0.000000038
     13        1           0.000152297   -0.003731529    0.000000311
     14        1          -0.000195371    0.003914257    0.000000316
 -------------------------------------------------------------------
 Cartesian Forces:  Max     0.007449229 RMS     0.002881190

 GradGradGradGradGradGradGradGradGradGradGradGradGradGradGradGradGradGrad
 Berny optimization.
 Internal  Forces:  Max     0.007138370 RMS     0.002230445
 Search for a local minimum.
 Step number   1 out of a maximum of   61
 All quantities printed in internal units (Hartrees-Bohrs-Radians)
 Mixed Optimization -- RFO/linear search
 Second derivative matrix not updated -- first step.
     Eigenvalues ---    0.01426   0.01426   0.02088   0.02088   0.02153
     Eigenvalues ---    0.02153   0.02722   0.02842   0.02842   0.02842
     Eigenvalues ---    0.02842   0.16000   0.16000   0.16000   0.16000
     Eigenvalues ---    0.16000   0.16000   0.16000   0.16000   0.22000
     Eigenvalues ---    0.22000   0.22000   0.22000   0.34691   0.34691
     Eigenvalues ---    0.34747   0.34747   0.35073   0.35073   0.35329
     Eigenvalues ---    0.35329   0.38233   0.38233   0.54568   0.56524
     Eigenvalues ---    0.565241000.000001000.000001000.000001000.00000
     Eigenvalues --- 1000.000001000.000001000.000001000.000001000.00000
     Eigenvalues --- 1000.000001000.000001000.000001000.000001000.00000
     Eigenvalues --- 1000.00000
 RFO step:  Lambda=-5.83838042D-04 EMin= 1.42613881D-02
 Linear search not attempted -- first point.
 Iteration  1 RMS(Cart)=  0.00770152 RMS(Int)=  0.00000372
 Iteration  2 RMS(Cart)=  0.00000551 RMS(Int)=  0.00000000
 Iteration  3 RMS(Cart)=  0.00000000 RMS(Int)=  0.00000000
 Variable       Old X    -DE/DX   Delta X   Delta X   Delta X     New X
                                 (Linear)    (Quad)   (Total)
    R1        2.53802   0.00640   0.00000   0.01132   0.01132   2.54934
    R2        2.05144   0.00361   0.00000   0.01019   0.01019   2.06163
    R3        2.05556   0.00373   0.00000   0.01062   0.01062   2.06619
    R4        2.74028  -0.00131   0.00000  -0.00343  -0.00343   2.73685
    R5        2.06087   0.00392   0.00000   0.01125   0.01125   2.07212
    R6        2.55518   0.00714   0.00000   0.01307   0.01307   2.56825
    R7        2.06179   0.00401   0.00000   0.01155   0.01155   2.07334
    R8        2.74028  -0.00131   0.00000  -0.00343  -0.00343   2.73685
    R9        2.06179   0.00401   0.00000   0.01155   0.01155   2.07334
   R10        2.53802   0.00640   0.00000   0.01132   0.01132   2.54934
   R11        2.06087   0.00392   0.00000   0.01125   0.01125   2.07212
   R12        2.05556   0.00373   0.00000   0.01062   0.01062   2.06619
   R13        2.05144   0.00361   0.00000   0.01019   0.01019   2.06163
    A1        2.12539  -0.00021   0.00000  -0.00129  -0.00129   2.12410
    A2        2.12093  -0.00012   0.00000  -0.00073  -0.00073   2.12020
    A3        2.03687   0.00032   0.00000   0.00202   0.00202   2.03889
    A4        2.17252   0.00021   0.00000   0.00094   0.00094   2.17346
    A5        2.08058  -0.00014   0.00000  -0.00067  -0.00067   2.07991
    A6        2.03009  -0.00007   0.00000  -0.00027  -0.00027   2.02982
    A7        2.17011   0.00001   0.00000   0.00004   0.00004   2.17014
    A8        2.03618   0.00010   0.00000   0.00060   0.00060   2.03679
    A9        2.07689  -0.00010   0.00000  -0.00064  -0.00064   2.07625
   A10        2.17011   0.00001   0.00000   0.00004   0.00004   2.17014
   A11        2.07689  -0.00010   0.00000  -0.00064  -0.00064   2.07625
   A12        2.03619   0.00010   0.00000   0.00060   0.00060   2.03679
   A13        2.17252   0.00021   0.00000   0.00094   0.00094   2.17346
   A14        2.03009  -0.00007   0.00000  -0.00027  -0.00027   2.02982
   A15        2.08058  -0.00014   0.00000  -0.00067  -0.00067   2.07991
   A16        2.12093  -0.00012   0.00000  -0.00073  -0.00073   2.12020
   A17        2.12539  -0.00021   0.00000  -0.00129  -0.00129   2.12410
   A18        2.03687   0.00032   0.00000   0.00202   0.00202   2.03888
    D1       -3.14158   0.00000   0.00000   0.00000   0.00000  -3.14159
    D2        0.00001   0.00000   0.00000   0.00000   0.00000   0.00000
    D3        0.00001   0.00000   0.00000  -0.00001  -0.00001   0.00000
    D4       -3.14158   0.00000   0.00000  -0.00001  -0.00001   3.14159
    D5        3.14156   0.00000   0.00000   0.00001   0.00001   3.14158
    D6       -0.00002   0.00000   0.00000   0.00000   0.00000  -0.00001
    D7       -0.00002   0.00000   0.00000   0.00001   0.00001  -0.00001
    D8        3.14158   0.00000   0.00000   0.00000   0.00000   3.14158
    D9       -3.14155   0.00000   0.00000  -0.00003  -0.00003  -3.14159
   D10        0.00003   0.00000   0.00000  -0.00002  -0.00002   0.00001
   D11        0.00003   0.00000   0.00000  -0.00002  -0.00002   0.00001
   D12       -3.14158   0.00000   0.00000  -0.00001  -0.00001  -3.14159
   D13        3.14156   0.00000   0.00000   0.00001   0.00001   3.14158
   D14       -0.00002   0.00000   0.00000   0.00001   0.00001  -0.00001
   D15       -0.00002   0.00000   0.00000   0.00000   0.00000  -0.00001
   D16        3.14158   0.00000   0.00000   0.00000   0.00000   3.14158
   D17        0.00001   0.00000   0.00000  -0.00001  -0.00001   0.00000
   D18       -3.14158   0.00000   0.00000   0.00000   0.00000  -3.14159
   D19       -3.14158   0.00000   0.00000  -0.00001  -0.00001   3.14159
   D20        0.00001   0.00000   0.00000   0.00000   0.00000   0.00000
         Item               Value     Threshold  Converged?
 Maximum Force            0.007138     0.000450     NO 
 RMS     Force            0.002230     0.000300     NO 
 Maximum Displacement     0.019792     0.001800     NO 
 RMS     Displacement     0.007702     0.001200     NO 
 Predicted change in Energy=-2.923344D-04
 GradGradGradGradGradGradGradGradGradGradGradGradGradGradGradGradGradGrad

                          Input orientation:                          
 ---------------------------------------------------------------------
 Center     Atomic      Atomic             Coordinates (Angstroms)
 Number     Number       Type             X           Y           Z
 ---------------------------------------------------------------------
      1          6           0        3.083704   -0.169435    0.000014
      2          6           0        1.869396    0.418269   -0.000004
      3          6           0        0.610672   -0.298058   -0.000008
      4          6           0       -0.610672    0.298059   -0.000008
      5          6           0       -1.869396   -0.418268   -0.000004
      6          6           0       -3.083704    0.169434    0.000014
      7          1           0        0.667029   -1.393775   -0.000010
      8          1           0       -0.667030    1.393775   -0.000010
      9          1           0       -1.805440   -1.512923   -0.000011
     10          1           0       -3.191392    1.257497    0.000022
     11          1           0       -4.004107   -0.416289    0.000022
     12          1           0        4.004107    0.416289    0.000022
     13          1           0        3.191391   -1.257497    0.000022
     14          1           0        1.805441    1.512923   -0.000011
 ---------------------------------------------------------------------
                    Distance matrix (angstroms):
                    1          2          3          4          5
     1  C    0.000000
     2  C    1.349051   0.000000
     3  C    2.476374   1.448278   0.000000
     4  C    3.723838   2.482980   1.359058   0.000000
     5  C    4.959346   3.831234   2.482980   1.448278   0.000000
     6  C    6.176711   4.959346   3.723837   2.476374   1.349051
     7  H    2.709119   2.174669   1.097165   2.120099   2.717548
     8  H    4.063450   2.717548   2.120099   1.097165   2.174669
     9  H    5.070374   4.151376   2.704348   2.169591   1.096521
    10  H    6.435290   5.129900   4.107973   2.753295   2.134447
    11  H    7.092108   5.932497   4.616293   3.467807   2.134712
    12  H    1.090969   2.134712   3.467808   4.616293   5.932497
    13  H    1.093379   2.134447   2.753295   4.107973   5.129900
    14  H    2.112885   1.096521   2.169591   2.704348   4.151376
                    6          7          8          9         10
     6  C    0.000000
     7  H    4.063450   0.000000
     8  H    2.709119   3.090331   0.000000
     9  H    2.112885   2.475339   3.121678   0.000000
    10  H    1.093379   4.681523   2.528038   3.097755   0.000000
    11  H    1.090969   4.772315   3.796369   2.456978   1.860663
    12  H    7.092108   3.796369   4.772315   6.121494   7.244503
    13  H    6.435290   2.528038   4.681523   5.003356   6.860402
    14  H    5.070375   3.121678   2.475339   4.711073   5.003357
                   11         12         13         14
    11  H    0.000000
    12  H    8.051377   0.000000
    13  H    7.244503   1.860663   0.000000
    14  H    6.121495   2.456977   3.097755   0.000000
 Stoichiometry    C6H8
 Framework group  C1[X(C6H8)]
 Deg. of freedom    36
 Full point group                 C1      NOp   1
 Largest Abelian subgroup         C1      NOp   1
 Largest concise Abelian subgroup C1      NOp   1
                         Standard orientation:                         
 ---------------------------------------------------------------------
 Center     Atomic      Atomic             Coordinates (Angstroms)
 Number     Number       Type             X           Y           Z
 ---------------------------------------------------------------------
      1          6           0        3.083835   -0.167025    0.000012
      2          6           0        1.869068    0.419729   -0.000005
      3          6           0        0.610905   -0.297581   -0.000009
      4          6           0       -0.610905    0.297581   -0.000009
      5          6           0       -1.869068   -0.419729   -0.000005
      6          6           0       -3.083835    0.167025    0.000012
      7          1           0        0.668118   -1.393253   -0.000011
      8          1           0       -0.668118    1.393254   -0.000011
      9          1           0       -1.804257   -1.514333   -0.000013
     10          1           0       -3.192373    1.255003    0.000021
     11          1           0       -4.003780   -0.419418    0.000020
     12          1           0        4.003780    0.419418    0.000020
     13          1           0        3.192373   -1.255003    0.000021
     14          1           0        1.804258    1.514333   -0.000013
 ---------------------------------------------------------------------
 Rotational constants (GHZ):     26.4814613      1.3252100      1.2620532
 Standard basis: TZVP (5D, 7F)
 There are   162 symmetry adapted basis functions of A   symmetry.
 Integral buffers will be    131072 words long.
 Raffenetti 2 integral format.
 Two-electron integral symmetry is turned on.
   162 basis functions,   274 primitive gaussians,   168 cartesian basis functions
    22 alpha electrons       22 beta electrons
       nuclear repulsion energy       193.1065097161 Hartrees.
 NAtoms=   14 NActive=   14 NUniq=   14 SFac= 7.50D-01 NAtFMM=   80 NAOKFM=F Big=F
 Standard density basis: TZVPFit (5D, 7F)
   300 Density fitting functions
 There are   300 symmetry adapted density basis functions of A   symmetry.
 One-electron integrals computed using PRISM.
 NBasis=   162 RedAO= T  NBF=   162
 NBsUse=   162 1.00D-06 NBFU=   162
 NBasis=      162 NBas6D=      168 NTT=       13203   NTT6D=    14196
 NDBShl=      124 NDBF=        300 NDBF6D=      336  NNucDB=        0
 IDenFi=        2 ISolve=        0 FullAP=F BlkAPC=T NucTyp=        0
 TolInv= 1.00D-05 TolIt=  1.00D-10 IR12=0.
 Petite list used in FoFDir.
 MinBra= 0 MaxBra= 3 Meth= 1.
 IRaf=       0 NMat=   1 IRICut=       1 DoRegI=T DoRafI=F ISym2E= 1 JSym2E=1.
  NDBF=   300  NBFD=   300
 NRank=   300 NBFDU=   300
 S*AI*S=  6.77532459274    
 Initial guess read from the read-write file.
 B after Tr=     0.000000    0.000000    0.000000
         Rot=    1.000000    0.000000    0.000000    0.000000 Ang=   0.00 deg.
 Initial guess orbital symmetries:
       Occupied  (A) (A) (A) (A) (A) (A) (A) (A) (A) (A) (A) (A)
                 (A) (A) (A) (A) (A) (A) (A) (A) (A) (A)
       Virtual   (A) (A) (A) (A) (A) (A) (A) (A) (A) (A) (A) (A)
                 (A) (A) (A) (A) (A) (A) (A) (A) (A) (A) (A) (A)
                 (A) (A) (A) (A) (A) (A) (A) (A) (A) (A) (A) (A)
                 (A) (A) (A) (A) (A) (A) (A) (A) (A) (A) (A) (A)
                 (A) (A) (A) (A) (A) (A) (A) (A) (A) (A) (A) (A)
                 (A) (A) (A) (A) (A) (A) (A) (A) (A) (A) (A) (A)
                 (A) (A) (A) (A) (A) (A) (A) (A) (A) (A) (A) (A)
                 (A) (A) (A) (A) (A) (A) (A) (A) (A) (A) (A) (A)
                 (A) (A) (A) (A) (A) (A) (A) (A) (A) (A) (A) (A)
                 (A) (A) (A) (A) (A) (A) (A) (A) (A) (A) (A) (A)
                 (A) (A) (A) (A) (A) (A) (A) (A) (A) (A) (A) (A)
                 (A) (A) (A) (A) (A) (A) (A) (A)
 Requested convergence on RMS density matrix=1.00D-08 within 128 cycles.
 Requested convergence on MAX density matrix=1.00D-06.
 Requested convergence on             energy=1.00D-06.
 No special actions if energy rises.
 FoFCou: FMM=F IPFlag=           0 FMFlag=      100000 FMFlg1=           0
         NFxFlg=           0 DoJE=T BraDBF=T KetDBF=F FulRan=T
         Omega=  0.000000  0.000000  1.000000  0.000000  0.000000 ICntrl=     500 IOpCl=  0
         NMat0=    1 NMatS0=    1 NMatT0=    0 NMatD0=    1 NMtDS0=    0 NMtDT0=    0
         I1Cent=           5 NGrid=           0.
 Symmetry not used in FoFCou.
 SCF Done:  E(RB-P86) =  -233.469861447     A.U. after   14 cycles
             Convg  =    0.2010D-08             -V/T =  2.0052
 Calling FoFJK, ICntrl=      2527 FMM=F ISym2X=0 I1Cent= 4 IOpClX= 0 NMat=1 NMatS=1 NMatT=0.
 ***** Axes restored to original set *****
 -------------------------------------------------------------------
 Center     Atomic                   Forces (Hartrees/Bohr)
 Number     Number              X              Y              Z
 -------------------------------------------------------------------
      1        6           0.000568131   -0.000069881   -0.000000018
      2        6          -0.001615650   -0.000620231    0.000000127
      3        6           0.001966784    0.000576022   -0.000000242
      4        6          -0.001966756   -0.000576114   -0.000000242
      5        6           0.001615729    0.000620324    0.000000127
      6        6          -0.000568249    0.000069835   -0.000000018
      7        1          -0.000286165   -0.000078149    0.000000182
      8        1           0.000286150    0.000078201    0.000000182
      9        1          -0.000219904   -0.000086338    0.000000074
     10        1           0.000184645   -0.000019613    0.000000005
     11        1           0.000147071   -0.000113460   -0.000000128
     12        1          -0.000147051    0.000113477   -0.000000128
     13        1          -0.000184623    0.000019629    0.000000005
     14        1           0.000219889    0.000086298    0.000000074
 -------------------------------------------------------------------
 Cartesian Forces:  Max     0.001966784 RMS     0.000606934

 GradGradGradGradGradGradGradGradGradGradGradGradGradGradGradGradGradGrad
 Berny optimization.
 Using GEDIIS/GDIIS optimizer.
 Internal  Forces:  Max     0.001246951 RMS     0.000287224
 Search for a local minimum.
 Step number   2 out of a maximum of   61
 All quantities printed in internal units (Hartrees-Bohrs-Radians)
 Mixed Optimization -- En-DIIS/RFO-DIIS
 Update second derivatives using D2CorX and points    1    2
 DE= -3.06D-04 DEPred=-2.92D-04 R= 1.05D+00
 SS=  1.41D+00  RLast= 3.77D-02 DXNew= 5.0454D-01 1.1309D-01
 Trust test= 1.05D+00 RLast= 3.77D-02 DXMaxT set to 3.00D-01
 Use linear search instead of GDIIS.
     Eigenvalues ---    0.01426   0.01426   0.02087   0.02087   0.02153
     Eigenvalues ---    0.02153   0.02722   0.02842   0.02842   0.02842
     Eigenvalues ---    0.02842   0.15754   0.16000   0.16000   0.16000
     Eigenvalues ---    0.16000   0.16000   0.16000   0.16017   0.21979
     Eigenvalues ---    0.22000   0.22000   0.22000   0.33043   0.34691
     Eigenvalues ---    0.34719   0.34747   0.35004   0.35073   0.35271
     Eigenvalues ---    0.35329   0.38233   0.39625   0.54083   0.56524
     Eigenvalues ---    0.567331000.000001000.000001000.000001000.00000
     Eigenvalues --- 1000.000001000.000001000.000001000.000001000.00000
     Eigenvalues --- 1000.000001000.000001000.000001000.000001000.00000
     Eigenvalues --- 1000.00000
 RFO step:  Lambda=-1.37229788D-05 EMin= 1.42613879D-02
 Quartic linear search produced a step of  0.03875.
 Iteration  1 RMS(Cart)=  0.00122149 RMS(Int)=  0.00000080
 Iteration  2 RMS(Cart)=  0.00000085 RMS(Int)=  0.00000000
 Variable       Old X    -DE/DX   Delta X   Delta X   Delta X     New X
                                 (Linear)    (Quad)   (Total)
    R1        2.54934   0.00019   0.00044   0.00016   0.00060   2.54994
    R2        2.06163  -0.00007   0.00040  -0.00036   0.00003   2.06166
    R3        2.06619  -0.00003   0.00041  -0.00028   0.00013   2.06632
    R4        2.73685  -0.00125  -0.00013  -0.00333  -0.00346   2.73339
    R5        2.07212   0.00007   0.00044   0.00002   0.00046   2.07258
    R6        2.56825   0.00046   0.00051   0.00067   0.00118   2.56942
    R7        2.07334   0.00006   0.00045   0.00000   0.00044   2.07379
    R8        2.73685  -0.00125  -0.00013  -0.00333  -0.00346   2.73339
    R9        2.07334   0.00006   0.00045   0.00000   0.00044   2.07379
   R10        2.54934   0.00019   0.00044   0.00016   0.00060   2.54994
   R11        2.07212   0.00007   0.00044   0.00002   0.00046   2.07258
   R12        2.06619  -0.00003   0.00041  -0.00028   0.00013   2.06632
   R13        2.06163  -0.00007   0.00040  -0.00036   0.00003   2.06166
    A1        2.12410  -0.00011  -0.00005  -0.00068  -0.00073   2.12337
    A2        2.12020  -0.00014  -0.00003  -0.00086  -0.00089   2.11930
    A3        2.03889   0.00024   0.00008   0.00154   0.00162   2.04051
    A4        2.17346   0.00008   0.00004   0.00036   0.00040   2.17386
    A5        2.07991  -0.00027  -0.00003  -0.00170  -0.00172   2.07818
    A6        2.02982   0.00019  -0.00001   0.00134   0.00133   2.03114
    A7        2.17014   0.00000   0.00000   0.00001   0.00001   2.17016
    A8        2.03679   0.00030   0.00002   0.00194   0.00197   2.03876
    A9        2.07625  -0.00030  -0.00002  -0.00195  -0.00198   2.07427
   A10        2.17014   0.00000   0.00000   0.00001   0.00001   2.17016
   A11        2.07625  -0.00030  -0.00002  -0.00195  -0.00198   2.07427
   A12        2.03679   0.00030   0.00002   0.00194   0.00197   2.03876
   A13        2.17346   0.00008   0.00004   0.00036   0.00040   2.17386
   A14        2.02982   0.00019  -0.00001   0.00134   0.00133   2.03114
   A15        2.07991  -0.00027  -0.00003  -0.00170  -0.00172   2.07818
   A16        2.12020  -0.00014  -0.00003  -0.00087  -0.00089   2.11930
   A17        2.12410  -0.00011  -0.00005  -0.00068  -0.00073   2.12337
   A18        2.03888   0.00024   0.00008   0.00154   0.00162   2.04051
    D1       -3.14159   0.00000   0.00000  -0.00001  -0.00001  -3.14159
    D2        0.00000   0.00000   0.00000   0.00000   0.00000   0.00000
    D3        0.00000   0.00000   0.00000   0.00000   0.00000   0.00000
    D4        3.14159   0.00000   0.00000   0.00000   0.00000  -3.14159
    D5        3.14158   0.00000   0.00000   0.00001   0.00001   3.14159
    D6       -0.00001   0.00000   0.00000   0.00001   0.00001   0.00000
    D7       -0.00001   0.00000   0.00000   0.00000   0.00001  -0.00001
    D8        3.14158   0.00000   0.00000   0.00000   0.00000   3.14159
    D9       -3.14159   0.00000   0.00000   0.00000   0.00000  -3.14159
   D10        0.00001   0.00000   0.00000   0.00000   0.00000   0.00000
   D11        0.00001   0.00000   0.00000   0.00000   0.00000   0.00000
   D12       -3.14159   0.00000   0.00000   0.00000   0.00000  -3.14159
   D13        3.14158   0.00000   0.00000   0.00001   0.00001   3.14159
   D14       -0.00001   0.00000   0.00000   0.00000   0.00001  -0.00001
   D15       -0.00001   0.00000   0.00000   0.00001   0.00001   0.00000
   D16        3.14158   0.00000   0.00000   0.00000   0.00000   3.14159
   D17        0.00000   0.00000   0.00000   0.00000   0.00000   0.00000
   D18       -3.14159   0.00000   0.00000  -0.00001  -0.00001  -3.14159
   D19        3.14159   0.00000   0.00000   0.00000   0.00000  -3.14159
   D20        0.00000   0.00000   0.00000   0.00000   0.00000   0.00000
         Item               Value     Threshold  Converged?
 Maximum Force            0.001247     0.000450     NO 
 RMS     Force            0.000287     0.000300     YES
 Maximum Displacement     0.002970     0.001800     NO 
 RMS     Displacement     0.001222     0.001200     NO 
 Predicted change in Energy=-7.334348D-06
 GradGradGradGradGradGradGradGradGradGradGradGradGradGradGradGradGradGrad

                          Input orientation:                          
 ---------------------------------------------------------------------
 Center     Atomic      Atomic             Coordinates (Angstroms)
 Number     Number       Type             X           Y           Z
 ---------------------------------------------------------------------
      1          6           0        3.082950   -0.169487    0.000008
      2          6           0        1.868000    0.417620    0.000002
      3          6           0        0.611017   -0.298061   -0.000001
      4          6           0       -0.611017    0.298061   -0.000001
      5          6           0       -1.868000   -0.417620    0.000002
      6          6           0       -3.082950    0.169487    0.000008
      7          1           0        0.665458   -1.394110   -0.000001
      8          1           0       -0.665458    1.394110   -0.000001
      9          1           0       -1.805255   -1.512588   -0.000003
     10          1           0       -3.190330    1.257650    0.000011
     11          1           0       -4.002585   -0.417473    0.000010
     12          1           0        4.002585    0.417473    0.000010
     13          1           0        3.190330   -1.257650    0.000011
     14          1           0        1.805255    1.512588   -0.000003
 ---------------------------------------------------------------------
                    Distance matrix (angstroms):
                    1          2          3          4          5
     1  C    0.000000
     2  C    1.349370   0.000000
     3  C    2.475274   1.446445   0.000000
     4  C    3.723438   2.481898   1.359680   0.000000
     5  C    4.957164   3.828226   2.481898   1.446445   0.000000
     6  C    6.175211   4.957164   3.723439   2.475274   1.349370
     7  H    2.709976   2.174505   1.097400   2.119629   2.715131
     8  H    4.061453   2.715131   2.119629   1.097400   2.174505
     9  H    5.069365   4.149518   2.704339   2.169021   1.096764
    10  H    6.433566   5.127607   4.107369   2.752030   2.134265
    11  H    7.089873   5.929683   4.615147   3.466226   2.134585
    12  H    1.090986   2.134585   3.466225   4.615147   5.929683
    13  H    1.093448   2.134265   2.752030   4.107369   5.127607
    14  H    2.112317   1.096764   2.169021   2.704339   4.149518
                    6          7          8          9         10
     6  C    0.000000
     7  H    4.061452   0.000000
     8  H    2.709976   3.089580   0.000000
     9  H    2.112317   2.473551   3.122184   0.000000
    10  H    1.093448   4.679629   2.528557   3.097201   0.000000
    11  H    1.090986   4.769113   3.797137   2.455104   1.861664
    12  H    7.089873   3.797137   4.769113   6.120142   7.241818
    13  H    6.433565   2.528557   4.679629   5.002086   6.858539
    14  H    5.069366   3.122184   2.473552   4.710358   5.002086
                   11         12         13         14
    11  H    0.000000
    12  H    8.048595   0.000000
    13  H    7.241818   1.861664   0.000000
    14  H    6.120142   2.455104   3.097201   0.000000
 Stoichiometry    C6H8
 Framework group  C1[X(C6H8)]
 Deg. of freedom    36
 Full point group                 C1      NOp   1
 Largest Abelian subgroup         C1      NOp   1
 Largest concise Abelian subgroup C1      NOp   1
                         Standard orientation:                         
 ---------------------------------------------------------------------
 Center     Atomic      Atomic             Coordinates (Angstroms)
 Number     Number       Type             X           Y           Z
 ---------------------------------------------------------------------
      1          6           0        3.083091   -0.166909    0.000005
      2          6           0        1.867650    0.419182   -0.000002
      3          6           0        0.611266   -0.297549   -0.000004
      4          6           0       -0.611266    0.297550   -0.000004
      5          6           0       -1.867650   -0.419182   -0.000002
      6          6           0       -3.083091    0.166908    0.000005
      7          1           0        0.666624   -1.393553   -0.000005
      8          1           0       -0.666624    1.393553   -0.000005
      9          1           0       -1.803989   -1.514098   -0.000006
     10          1           0       -3.191381    1.254981    0.000008
     11          1           0       -4.002234   -0.420821    0.000007
     12          1           0        4.002234    0.420821    0.000007
     13          1           0        3.191381   -1.254981    0.000008
     14          1           0        1.803989    1.514098   -0.000006
 ---------------------------------------------------------------------
 Rotational constants (GHZ):     26.4950689      1.3261512      1.2629376
 Standard basis: TZVP (5D, 7F)
 There are   162 symmetry adapted basis functions of A   symmetry.
 Integral buffers will be    131072 words long.
 Raffenetti 2 integral format.
 Two-electron integral symmetry is turned on.
   162 basis functions,   274 primitive gaussians,   168 cartesian basis functions
    22 alpha electrons       22 beta electrons
       nuclear repulsion energy       193.1571322121 Hartrees.
 NAtoms=   14 NActive=   14 NUniq=   14 SFac= 7.50D-01 NAtFMM=   80 NAOKFM=F Big=F
 Standard density basis: TZVPFit (5D, 7F)
   300 Density fitting functions
 There are   300 symmetry adapted density basis functions of A   symmetry.
 One-electron integrals computed using PRISM.
 NBasis=   162 RedAO= T  NBF=   162
 NBsUse=   162 1.00D-06 NBFU=   162
 NBasis=      162 NBas6D=      168 NTT=       13203   NTT6D=    14196
 NDBShl=      124 NDBF=        300 NDBF6D=      336  NNucDB=        0
 IDenFi=        2 ISolve=        0 FullAP=F BlkAPC=T NucTyp=        0
 TolInv= 1.00D-05 TolIt=  1.00D-10 IR12=0.
 Petite list used in FoFDir.
 MinBra= 0 MaxBra= 3 Meth= 1.
 IRaf=       0 NMat=   1 IRICut=       1 DoRegI=T DoRafI=F ISym2E= 1 JSym2E=1.
  NDBF=   300  NBFD=   300
 NRank=   300 NBFDU=   300
 S*AI*S=  6.77456779852    
 Initial guess read from the read-write file.
 B after Tr=     0.000000    0.000000    0.000000
         Rot=    1.000000    0.000000    0.000000    0.000000 Ang=   0.00 deg.
 Initial guess orbital symmetries:
       Occupied  (A) (A) (A) (A) (A) (A) (A) (A) (A) (A) (A) (A)
                 (A) (A) (A) (A) (A) (A) (A) (A) (A) (A)
       Virtual   (A) (A) (A) (A) (A) (A) (A) (A) (A) (A) (A) (A)
                 (A) (A) (A) (A) (A) (A) (A) (A) (A) (A) (A) (A)
                 (A) (A) (A) (A) (A) (A) (A) (A) (A) (A) (A) (A)
                 (A) (A) (A) (A) (A) (A) (A) (A) (A) (A) (A) (A)
                 (A) (A) (A) (A) (A) (A) (A) (A) (A) (A) (A) (A)
                 (A) (A) (A) (A) (A) (A) (A) (A) (A) (A) (A) (A)
                 (A) (A) (A) (A) (A) (A) (A) (A) (A) (A) (A) (A)
                 (A) (A) (A) (A) (A) (A) (A) (A) (A) (A) (A) (A)
                 (A) (A) (A) (A) (A) (A) (A) (A) (A) (A) (A) (A)
                 (A) (A) (A) (A) (A) (A) (A) (A) (A) (A) (A) (A)
                 (A) (A) (A) (A) (A) (A) (A) (A) (A) (A) (A) (A)
                 (A) (A) (A) (A) (A) (A) (A) (A)
 Requested convergence on RMS density matrix=1.00D-08 within 128 cycles.
 Requested convergence on MAX density matrix=1.00D-06.
 Requested convergence on             energy=1.00D-06.
 No special actions if energy rises.
 FoFCou: FMM=F IPFlag=           0 FMFlag=      100000 FMFlg1=           0
         NFxFlg=           0 DoJE=T BraDBF=T KetDBF=F FulRan=T
         Omega=  0.000000  0.000000  1.000000  0.000000  0.000000 ICntrl=     500 IOpCl=  0
         NMat0=    1 NMatS0=    1 NMatT0=    0 NMatD0=    1 NMtDS0=    0 NMtDT0=    0
         I1Cent=           5 NGrid=           0.
 Symmetry not used in FoFCou.
 SCF Done:  E(RB-P86) =  -233.469870643     A.U. after    7 cycles
             Convg  =    0.8064D-08             -V/T =  2.0052
 Calling FoFJK, ICntrl=      2527 FMM=F ISym2X=0 I1Cent= 4 IOpClX= 0 NMat=1 NMatS=1 NMatT=0.
 ***** Axes restored to original set *****
 -------------------------------------------------------------------
 Center     Atomic                   Forces (Hartrees/Bohr)
 Number     Number              X              Y              Z
 -------------------------------------------------------------------
      1        6           0.000320750   -0.000040413   -0.000000092
      2        6          -0.000465734   -0.000120741   -0.000000103
      3        6           0.000603591    0.000132304   -0.000000003
      4        6          -0.000603660   -0.000132289   -0.000000003
      5        6           0.000465720    0.000120800   -0.000000103
      6        6          -0.000320714    0.000040398   -0.000000092
      7        1          -0.000114278    0.000061899    0.000000073
      8        1           0.000114287   -0.000061944    0.000000073
      9        1          -0.000088280    0.000054200    0.000000077
     10        1           0.000067230   -0.000086757    0.000000034
     11        1           0.000117519   -0.000000736    0.000000013
     12        1          -0.000117485    0.000000753    0.000000013
     13        1          -0.000067221    0.000086720    0.000000034
     14        1           0.000088275   -0.000054194    0.000000077
 -------------------------------------------------------------------
 Cartesian Forces:  Max     0.000603660 RMS     0.000191651

 GradGradGradGradGradGradGradGradGradGradGradGradGradGradGradGradGradGrad
 Berny optimization.
 Using GEDIIS/GDIIS optimizer.
 Internal  Forces:  Max     0.000279802 RMS     0.000090120
 Search for a local minimum.
 Step number   3 out of a maximum of   61
 All quantities printed in internal units (Hartrees-Bohrs-Radians)
 Mixed Optimization -- En-DIIS/RFO-DIIS
 Swaping is turned off.
 Update second derivatives using D2CorX and points    1    2    3
 DE= -9.20D-06 DEPred=-7.33D-06 R= 1.25D+00
 SS=  1.41D+00  RLast= 7.76D-03 DXNew= 5.0454D-01 2.3280D-02
 Trust test= 1.25D+00 RLast= 7.76D-03 DXMaxT set to 3.00D-01
     Eigenvalues ---    0.01426   0.01426   0.02086   0.02086   0.02152
     Eigenvalues ---    0.02152   0.02722   0.02842   0.02842   0.02842
     Eigenvalues ---    0.02842   0.12286   0.16000   0.16000   0.16000
     Eigenvalues ---    0.16000   0.16000   0.16001   0.16007   0.21721
     Eigenvalues ---    0.22000   0.22000   0.22033   0.33613   0.34691
     Eigenvalues ---    0.34718   0.34747   0.35010   0.35073   0.35258
     Eigenvalues ---    0.35329   0.37356   0.38233   0.53857   0.56524
     Eigenvalues ---    0.567201000.000001000.000001000.000001000.00000
     Eigenvalues --- 1000.000001000.000001000.000001000.000001000.00000
     Eigenvalues --- 1000.000001000.000001000.000001000.000001000.00000
     Eigenvalues --- 1000.00000
 En-DIIS/RFO-DIIS IScMMF=        0 using points:     3    2
 RFO step:  Lambda=-9.47335055D-07.
 DIIS coeffs:      1.39522     -0.39522
 Iteration  1 RMS(Cart)=  0.00061232 RMS(Int)=  0.00000032
 Iteration  2 RMS(Cart)=  0.00000034 RMS(Int)=  0.00000000
 Variable       Old X    -DE/DX   Delta X   Delta X   Delta X     New X
                                  (DIIS)     (GDIIS)  (Total)
    R1        2.54994   0.00011   0.00024   0.00017   0.00040   2.55034
    R2        2.06166  -0.00010   0.00001  -0.00030  -0.00029   2.06137
    R3        2.06632  -0.00009   0.00005  -0.00029  -0.00024   2.06608
    R4        2.73339  -0.00028  -0.00137   0.00015  -0.00122   2.73216
    R5        2.07258  -0.00006   0.00018  -0.00029  -0.00011   2.07248
    R6        2.56942   0.00020   0.00046   0.00023   0.00070   2.57012
    R7        2.07379  -0.00007   0.00018  -0.00031  -0.00013   2.07366
    R8        2.73339  -0.00028  -0.00137   0.00015  -0.00122   2.73216
    R9        2.07379  -0.00007   0.00018  -0.00031  -0.00013   2.07366
   R10        2.54994   0.00011   0.00024   0.00017   0.00040   2.55034
   R11        2.07258  -0.00006   0.00018  -0.00029  -0.00011   2.07248
   R12        2.06632  -0.00009   0.00005  -0.00029  -0.00024   2.06608
   R13        2.06166  -0.00010   0.00001  -0.00030  -0.00029   2.06137
    A1        2.12337  -0.00004  -0.00029  -0.00011  -0.00040   2.12297
    A2        2.11930  -0.00004  -0.00035  -0.00006  -0.00041   2.11889
    A3        2.04051   0.00008   0.00064   0.00017   0.00081   2.04132
    A4        2.17386   0.00009   0.00016   0.00047   0.00062   2.17448
    A5        2.07818  -0.00014  -0.00068  -0.00048  -0.00117   2.07702
    A6        2.03114   0.00004   0.00052   0.00002   0.00054   2.03169
    A7        2.17016   0.00005   0.00000   0.00033   0.00034   2.17049
    A8        2.03876   0.00009   0.00078   0.00017   0.00095   2.03970
    A9        2.07427  -0.00014  -0.00078  -0.00050  -0.00128   2.07299
   A10        2.17016   0.00005   0.00000   0.00033   0.00034   2.17049
   A11        2.07427  -0.00014  -0.00078  -0.00050  -0.00128   2.07299
   A12        2.03876   0.00009   0.00078   0.00017   0.00095   2.03970
   A13        2.17386   0.00009   0.00016   0.00047   0.00062   2.17448
   A14        2.03114   0.00004   0.00052   0.00002   0.00054   2.03169
   A15        2.07818  -0.00014  -0.00068  -0.00048  -0.00117   2.07702
   A16        2.11930  -0.00004  -0.00035  -0.00006  -0.00041   2.11889
   A17        2.12337  -0.00004  -0.00029  -0.00011  -0.00040   2.12297
   A18        2.04051   0.00008   0.00064   0.00017   0.00081   2.04132
    D1       -3.14159   0.00000   0.00000   0.00000   0.00000  -3.14159
    D2        0.00000   0.00000   0.00000   0.00000   0.00000   0.00000
    D3        0.00000   0.00000   0.00000   0.00000   0.00000   0.00000
    D4       -3.14159   0.00000   0.00000   0.00000   0.00000   3.14159
    D5        3.14159   0.00000   0.00000   0.00000   0.00000   3.14159
    D6        0.00000   0.00000   0.00000   0.00000   0.00000   0.00000
    D7       -0.00001   0.00000   0.00000   0.00000   0.00001   0.00000
    D8        3.14159   0.00000   0.00000   0.00000   0.00000   3.14159
    D9       -3.14159   0.00000   0.00000   0.00000   0.00000   3.14159
   D10        0.00000   0.00000   0.00000   0.00000   0.00000   0.00000
   D11        0.00000   0.00000   0.00000   0.00000   0.00000   0.00000
   D12       -3.14159   0.00000   0.00000   0.00000   0.00000  -3.14159
   D13        3.14159   0.00000   0.00000   0.00000   0.00000   3.14159
   D14       -0.00001   0.00000   0.00000   0.00000   0.00001   0.00000
   D15        0.00000   0.00000   0.00000   0.00000   0.00000   0.00000
   D16        3.14159   0.00000   0.00000   0.00000   0.00000   3.14159
   D17        0.00000   0.00000   0.00000   0.00000   0.00000   0.00000
   D18       -3.14159   0.00000   0.00000   0.00000   0.00000  -3.14159
   D19       -3.14159   0.00000   0.00000   0.00000   0.00000   3.14159
   D20        0.00000   0.00000   0.00000   0.00000   0.00000   0.00000
         Item               Value     Threshold  Converged?
 Maximum Force            0.000280     0.000450     YES
 RMS     Force            0.000090     0.000300     YES
 Maximum Displacement     0.001872     0.001800     NO 
 RMS     Displacement     0.000612     0.001200     YES
 Predicted change in Energy=-1.150492D-06
 GradGradGradGradGradGradGradGradGradGradGradGradGradGradGradGradGradGrad

                          Input orientation:                          
 ---------------------------------------------------------------------
 Center     Atomic      Atomic             Coordinates (Angstroms)
 Number     Number       Type             X           Y           Z
 ---------------------------------------------------------------------
      1          6           0        3.083186   -0.169495    0.000004
      2          6           0        1.867768    0.417136    0.000003
      3          6           0        0.611237   -0.298031    0.000003
      4          6           0       -0.611238    0.298031    0.000003
      5          6           0       -1.867768   -0.417136    0.000003
      6          6           0       -3.083186    0.169495    0.000004
      7          1           0        0.664467   -1.394071    0.000003
      8          1           0       -0.664467    1.394071    0.000003
      9          1           0       -1.805791   -1.512090    0.000003
     10          1           0       -3.190616    1.257524    0.000005
     11          1           0       -4.002179   -0.418183    0.000005
     12          1           0        4.002180    0.418184    0.000005
     13          1           0        3.190616   -1.257524    0.000005
     14          1           0        1.805790    1.512090    0.000003
 ---------------------------------------------------------------------
                    Distance matrix (angstroms):
                    1          2          3          4          5
     1  C    0.000000
     2  C    1.349584   0.000000
     3  C    2.475289   1.445799   0.000000
     4  C    3.723889   2.481865   1.360050   0.000000
     5  C    4.957144   3.827564   2.481865   1.445799   0.000000
     6  C    6.175684   4.957144   3.723889   2.475288   1.349584
     7  H    2.711050   2.174490   1.097332   2.119111   2.714151
     8  H    4.060744   2.714151   2.119111   1.097332   2.174490
     9  H    5.069976   4.149331   2.704804   2.168754   1.096707
    10  H    6.434048   5.127719   4.107778   2.752057   2.134107
    11  H    7.089729   5.929085   4.614981   3.465754   2.134411
    12  H    1.090832   2.134411   3.465754   4.614981   5.929085
    13  H    1.093320   2.134107   2.752058   4.107778   5.127719
    14  H    2.111745   1.096707   2.168754   2.704804   4.149331
                    6          7          8          9         10
     6  C    0.000000
     7  H    4.060744   0.000000
     8  H    2.711049   3.088657   0.000000
     9  H    2.111745   2.473075   3.122241   0.000000
    10  H    1.093320   4.678955   2.529836   3.096531   0.000000
    11  H    1.090832   4.767593   3.797972   2.453723   1.861889
    12  H    7.089729   3.797972   4.767594   6.120333   7.241602
    13  H    6.434049   2.529837   4.678955   5.002887   6.858979
    14  H    5.069976   3.122241   2.473075   4.710540   5.002887
                   11         12         13         14
    11  H    0.000000
    12  H    8.047936   0.000000
    13  H    7.241602   1.861889   0.000000
    14  H    6.120333   2.453723   3.096531   0.000000
 Stoichiometry    C6H8
 Framework group  C1[X(C6H8)]
 Deg. of freedom    36
 Full point group                 C1      NOp   1
 Largest Abelian subgroup         C1      NOp   1
 Largest concise Abelian subgroup C1      NOp   1
                         Standard orientation:                         
 ---------------------------------------------------------------------
 Center     Atomic      Atomic             Coordinates (Angstroms)
 Number     Number       Type             X           Y           Z
 ---------------------------------------------------------------------
      1          6           0       -3.083331    0.166837    0.000001
      2          6           0       -1.867408   -0.418746   -0.000001
      3          6           0       -0.611494    0.297504    0.000000
      4          6           0        0.611494   -0.297504    0.000000
      5          6           0        1.867408    0.418746   -0.000001
      6          6           0        3.083331   -0.166837    0.000001
      7          1           0       -0.665669    1.393498    0.000000
      8          1           0        0.665669   -1.393498    0.000000
      9          1           0        1.804486    1.513646   -0.000001
     10          1           0        3.191699   -1.254773    0.000002
     11          1           0        4.001817    0.421633    0.000001
     12          1           0       -4.001818   -0.421634    0.000001
     13          1           0       -3.191699    1.254773    0.000002
     14          1           0       -1.804486   -1.513646   -0.000001
 ---------------------------------------------------------------------
 Rotational constants (GHZ):     26.5126912      1.3260849      1.2629176
 Standard basis: TZVP (5D, 7F)
 There are   162 symmetry adapted basis functions of A   symmetry.
 Integral buffers will be    131072 words long.
 Raffenetti 2 integral format.
 Two-electron integral symmetry is turned on.
   162 basis functions,   274 primitive gaussians,   168 cartesian basis functions
    22 alpha electrons       22 beta electrons
       nuclear repulsion energy       193.1647273819 Hartrees.
 NAtoms=   14 NActive=   14 NUniq=   14 SFac= 7.50D-01 NAtFMM=   80 NAOKFM=F Big=F
 Standard density basis: TZVPFit (5D, 7F)
   300 Density fitting functions
 There are   300 symmetry adapted density basis functions of A   symmetry.
 One-electron integrals computed using PRISM.
 NBasis=   162 RedAO= T  NBF=   162
 NBsUse=   162 1.00D-06 NBFU=   162
 NBasis=      162 NBas6D=      168 NTT=       13203   NTT6D=    14196
 NDBShl=      124 NDBF=        300 NDBF6D=      336  NNucDB=        0
 IDenFi=        2 ISolve=        0 FullAP=F BlkAPC=T NucTyp=        0
 TolInv= 1.00D-05 TolIt=  1.00D-10 IR12=0.
 Petite list used in FoFDir.
 MinBra= 0 MaxBra= 3 Meth= 1.
 IRaf=       0 NMat=   1 IRICut=       1 DoRegI=T DoRafI=F ISym2E= 1 JSym2E=1.
  NDBF=   300  NBFD=   300
 NRank=   300 NBFDU=   300
 S*AI*S=  6.77444518652    
 Initial guess read from the read-write file.
 B after Tr=     0.000000    0.000000    0.000000
         Rot=    1.000000    0.000000    0.000000    0.000000 Ang=   0.00 deg.
 Initial guess orbital symmetries:
       Occupied  (A) (A) (A) (A) (A) (A) (A) (A) (A) (A) (A) (A)
                 (A) (A) (A) (A) (A) (A) (A) (A) (A) (A)
       Virtual   (A) (A) (A) (A) (A) (A) (A) (A) (A) (A) (A) (A)
                 (A) (A) (A) (A) (A) (A) (A) (A) (A) (A) (A) (A)
                 (A) (A) (A) (A) (A) (A) (A) (A) (A) (A) (A) (A)
                 (A) (A) (A) (A) (A) (A) (A) (A) (A) (A) (A) (A)
                 (A) (A) (A) (A) (A) (A) (A) (A) (A) (A) (A) (A)
                 (A) (A) (A) (A) (A) (A) (A) (A) (A) (A) (A) (A)
                 (A) (A) (A) (A) (A) (A) (A) (A) (A) (A) (A) (A)
                 (A) (A) (A) (A) (A) (A) (A) (A) (A) (A) (A) (A)
                 (A) (A) (A) (A) (A) (A) (A) (A) (A) (A) (A) (A)
                 (A) (A) (A) (A) (A) (A) (A) (A) (A) (A) (A) (A)
                 (A) (A) (A) (A) (A) (A) (A) (A) (A) (A) (A) (A)
                 (A) (A) (A) (A) (A) (A) (A) (A)
 Requested convergence on RMS density matrix=1.00D-08 within 128 cycles.
 Requested convergence on MAX density matrix=1.00D-06.
 Requested convergence on             energy=1.00D-06.
 No special actions if energy rises.
 FoFCou: FMM=F IPFlag=           0 FMFlag=      100000 FMFlg1=           0
         NFxFlg=           0 DoJE=T BraDBF=T KetDBF=F FulRan=T
         Omega=  0.000000  0.000000  1.000000  0.000000  0.000000 ICntrl=     500 IOpCl=  0
         NMat0=    1 NMatS0=    1 NMatT0=    0 NMatD0=    1 NMtDS0=    0 NMtDT0=    0
         I1Cent=           5 NGrid=           0.
 Symmetry not used in FoFCou.
 SCF Done:  E(RB-P86) =  -233.469871810     A.U. after   14 cycles
             Convg  =    0.5683D-08             -V/T =  2.0052
 Calling FoFJK, ICntrl=      2527 FMM=F ISym2X=0 I1Cent= 4 IOpClX= 0 NMat=1 NMatS=1 NMatT=0.
 ***** Axes restored to original set *****
 -------------------------------------------------------------------
 Center     Atomic                   Forces (Hartrees/Bohr)
 Number     Number              X              Y              Z
 -------------------------------------------------------------------
      1        6           0.000005548   -0.000008301    0.000000029
      2        6           0.000014984    0.000013572    0.000000064
      3        6          -0.000028586   -0.000009327   -0.000000052
      4        6           0.000028628    0.000009311   -0.000000052
      5        6          -0.000014923   -0.000013627    0.000000064
      6        6          -0.000005582    0.000008311    0.000000029
      7        1          -0.000001214    0.000009199    0.000000011
      8        1           0.000001213   -0.000009166    0.000000011
      9        1          -0.000000665    0.000007589   -0.000000012
     10        1          -0.000000371   -0.000014533   -0.000000015
     11        1           0.000020413   -0.000007379   -0.000000026
     12        1          -0.000020468    0.000007348   -0.000000026
     13        1           0.000000361    0.000014594   -0.000000015
     14        1           0.000000663   -0.000007591   -0.000000012
 -------------------------------------------------------------------
 Cartesian Forces:  Max     0.000028628 RMS     0.000010332

 GradGradGradGradGradGradGradGradGradGradGradGradGradGradGradGradGradGrad
 Berny optimization.
 Using GEDIIS/GDIIS optimizer.
 Internal  Forces:  Max     0.000027723 RMS     0.000008759
 Search for a local minimum.
 Step number   4 out of a maximum of   61
 All quantities printed in internal units (Hartrees-Bohrs-Radians)
 Mixed Optimization -- En-DIIS/RFO-DIIS
 Swaping is turned off.
 Update second derivatives using D2CorX and points    1    2    3    4
 DE= -1.17D-06 DEPred=-1.15D-06 R= 1.01D+00
 SS=  1.41D+00  RLast= 3.94D-03 DXNew= 5.0454D-01 1.1823D-02
 Trust test= 1.01D+00 RLast= 3.94D-03 DXMaxT set to 3.00D-01
     Eigenvalues ---    0.01426   0.01426   0.02085   0.02085   0.02151
     Eigenvalues ---    0.02151   0.02722   0.02842   0.02842   0.02842
     Eigenvalues ---    0.02842   0.11953   0.16000   0.16000   0.16000
     Eigenvalues ---    0.16000   0.16000   0.16003   0.16106   0.21667
     Eigenvalues ---    0.22000   0.22000   0.22179   0.33741   0.34691
     Eigenvalues ---    0.34718   0.34747   0.35046   0.35073   0.35078
     Eigenvalues ---    0.35329   0.35418   0.38233   0.54484   0.56524
     Eigenvalues ---    0.574271000.000001000.000001000.000001000.00000
     Eigenvalues --- 1000.000001000.000001000.000001000.000001000.00000
     Eigenvalues --- 1000.000001000.000001000.000001000.000001000.00000
     Eigenvalues --- 1000.00000
 En-DIIS/RFO-DIIS IScMMF=        0 using points:     4    3    2
 RFO step:  Lambda= 0.00000000D+00.
 DIIS coeffs:      1.03360     -0.04669      0.01309
 Iteration  1 RMS(Cart)=  0.00008489 RMS(Int)=  0.00000000
 Iteration  2 RMS(Cart)=  0.00000000 RMS(Int)=  0.00000000
 Variable       Old X    -DE/DX   Delta X   Delta X   Delta X     New X
                                  (DIIS)     (GDIIS)  (Total)
    R1        2.55034  -0.00002   0.00001  -0.00003  -0.00002   2.55032
    R2        2.06137  -0.00002  -0.00001  -0.00003  -0.00004   2.06133
    R3        2.06608  -0.00001  -0.00001  -0.00002  -0.00003   2.06604
    R4        2.73216   0.00000   0.00000   0.00000   0.00001   2.73217
    R5        2.07248  -0.00001  -0.00001  -0.00002  -0.00003   2.07245
    R6        2.57012  -0.00003   0.00001  -0.00006  -0.00005   2.57007
    R7        2.07366  -0.00001  -0.00001  -0.00001  -0.00002   2.07363
    R8        2.73216   0.00000   0.00000   0.00000   0.00001   2.73217
    R9        2.07366  -0.00001  -0.00001  -0.00001  -0.00002   2.07363
   R10        2.55034  -0.00001   0.00001  -0.00003  -0.00002   2.55032
   R11        2.07248  -0.00001  -0.00001  -0.00002  -0.00003   2.07245
   R12        2.06608  -0.00001  -0.00001  -0.00002  -0.00003   2.06604
   R13        2.06137  -0.00002  -0.00001  -0.00003  -0.00004   2.06133
    A1        2.12297  -0.00002   0.00000  -0.00011  -0.00012   2.12285
    A2        2.11889   0.00001   0.00000   0.00006   0.00006   2.11895
    A3        2.04132   0.00001   0.00001   0.00005   0.00006   2.04138
    A4        2.17448   0.00001   0.00002   0.00003   0.00004   2.17452
    A5        2.07702  -0.00001  -0.00002  -0.00002  -0.00004   2.07698
    A6        2.03169   0.00000   0.00000  -0.00001  -0.00001   2.03168
    A7        2.17049  -0.00001   0.00001  -0.00006  -0.00005   2.17044
    A8        2.03970   0.00001   0.00001   0.00004   0.00004   2.03975
    A9        2.07299   0.00000  -0.00002   0.00002   0.00000   2.07300
   A10        2.17049  -0.00001   0.00001  -0.00006  -0.00005   2.17044
   A11        2.07299   0.00000  -0.00002   0.00002   0.00000   2.07300
   A12        2.03970   0.00001   0.00001   0.00004   0.00004   2.03975
   A13        2.17448   0.00001   0.00002   0.00003   0.00004   2.17452
   A14        2.03169   0.00000   0.00000  -0.00001  -0.00001   2.03168
   A15        2.07702  -0.00001  -0.00002  -0.00002  -0.00004   2.07698
   A16        2.11889   0.00001   0.00000   0.00006   0.00006   2.11895
   A17        2.12297  -0.00002   0.00000  -0.00011  -0.00012   2.12285
   A18        2.04132   0.00001   0.00001   0.00005   0.00006   2.04138
    D1       -3.14159   0.00000   0.00000   0.00000   0.00000   3.14159
    D2        0.00000   0.00000   0.00000   0.00000   0.00000   0.00000
    D3        0.00000   0.00000   0.00000   0.00000   0.00000   0.00000
    D4        3.14159   0.00000   0.00000   0.00000   0.00000  -3.14159
    D5        3.14159   0.00000   0.00000   0.00000   0.00000   3.14159
    D6        0.00000   0.00000   0.00000   0.00000   0.00000   0.00000
    D7        0.00000   0.00000   0.00000   0.00000   0.00000   0.00000
    D8        3.14159   0.00000   0.00000   0.00000   0.00000   3.14159
    D9        3.14159   0.00000   0.00000   0.00000   0.00000  -3.14159
   D10        0.00000   0.00000   0.00000   0.00000   0.00000   0.00000
   D11        0.00000   0.00000   0.00000   0.00000   0.00000   0.00000
   D12       -3.14159   0.00000   0.00000   0.00000   0.00000   3.14159
   D13        3.14159   0.00000   0.00000   0.00000   0.00000   3.14159
   D14        0.00000   0.00000   0.00000   0.00000   0.00000   0.00000
   D15        0.00000   0.00000   0.00000   0.00000   0.00000   0.00000
   D16        3.14159   0.00000   0.00000   0.00000   0.00000   3.14159
   D17        0.00000   0.00000   0.00000   0.00000   0.00000   0.00000
   D18       -3.14159   0.00000   0.00000   0.00000   0.00000   3.14159
   D19        3.14159   0.00000   0.00000   0.00000   0.00000  -3.14159
[...]
    R3        2.06608  -0.00001   0.00000  -0.00004  -0.00004   2.06604
    R4        2.73216   0.00000   0.00000   0.00002   0.00002   2.73219
    R5        2.07248  -0.00001   0.00000  -0.00003  -0.00003   2.07245
    R6        2.57012  -0.00003   0.00000  -0.00005  -0.00005   2.57007
    R7        2.07366  -0.00001   0.00000  -0.00003  -0.00003   2.07363
    R8        2.73216   0.00000   0.00000   0.00002   0.00002   2.73219
    R9        2.07366  -0.00001   0.00000  -0.00003  -0.00003   2.07363
   R10        2.55034  -0.00001   0.00000  -0.00002  -0.00002   2.55032
   R11        2.07248  -0.00001   0.00000  -0.00003  -0.00003   2.07245
   R12        2.06608  -0.00001   0.00000  -0.00004  -0.00004   2.06604
   R13        2.06137  -0.00002   0.00000  -0.00004  -0.00004   2.06133
    A1        2.12297  -0.00002   0.00000  -0.00017  -0.00017   2.12280
    A2        2.11889   0.00001   0.00000   0.00008   0.00008   2.11898
    A3        2.04132   0.00001   0.00000   0.00009   0.00009   2.04141
    A4        2.17448   0.00001   0.00000   0.00008   0.00008   2.17456
    A5        2.07702  -0.00001   0.00000  -0.00005  -0.00005   2.07697
    A6        2.03169   0.00000   0.00000  -0.00003  -0.00003   2.03166
    A7        2.17049  -0.00001   0.00000  -0.00007  -0.00007   2.17042
    A8        2.03970   0.00001   0.00000   0.00005   0.00005   2.03976
    A9        2.07299   0.00000   0.00000   0.00002   0.00002   2.07301
   A10        2.17049  -0.00001   0.00000  -0.00007  -0.00007   2.17042
   A11        2.07299   0.00000   0.00000   0.00002   0.00002   2.07301
   A12        2.03970   0.00001   0.00000   0.00005   0.00005   2.03976
   A13        2.17448   0.00001   0.00000   0.00008   0.00008   2.17456
   A14        2.03169   0.00000   0.00000  -0.00003  -0.00003   2.03166
   A15        2.07702  -0.00001   0.00000  -0.00005  -0.00005   2.07697
   A16        2.11889   0.00001   0.00000   0.00008   0.00008   2.11898
   A17        2.12297  -0.00002   0.00000  -0.00017  -0.00017   2.12280
   A18        2.04132   0.00001   0.00000   0.00009   0.00009   2.04141
    D1       -3.14159   0.00000   0.00000   0.00000   0.00000  -3.14159
    D2        0.00000   0.00000   0.00000   0.00000   0.00000   0.00000
    D3        0.00000   0.00000   0.00000   0.00000   0.00000   0.00000
    D4        3.14159   0.00000   0.00000   0.00000   0.00000   3.14159
    D5        3.14159   0.00000   0.00000   0.00000   0.00000   3.14159
    D6        0.00000   0.00000   0.00000   0.00000   0.00000   0.00000
    D7        0.00000   0.00000   0.00000   0.00000   0.00000   0.00000
    D8        3.14159   0.00000   0.00000   0.00000   0.00000   3.14159
    D9        3.14159   0.00000   0.00000   0.00000   0.00000   3.14159
   D10        0.00000   0.00000   0.00000   0.00000   0.00000   0.00000
   D11        0.00000   0.00000   0.00000   0.00000   0.00000   0.00000
   D12       -3.14159   0.00000   0.00000   0.00000   0.00000   3.14159
   D13        3.14159   0.00000   0.00000   0.00000   0.00000   3.14159
   D14        0.00000   0.00000   0.00000   0.00000   0.00000   0.00000
   D15        0.00000   0.00000   0.00000   0.00000   0.00000   0.00000
   D16        3.14159   0.00000   0.00000   0.00000   0.00000   3.14159
   D17        0.00000   0.00000   0.00000   0.00000   0.00000   0.00000
   D18       -3.14159   0.00000   0.00000   0.00000   0.00000   3.14159
   D19        3.14159   0.00000   0.00000   0.00000   0.00000   3.14159
   D20        0.00000   0.00000   0.00000   0.00000   0.00000   0.00000
         Item               Value     Threshold  Converged?
 Maximum Force            0.000028     0.000450     YES
 RMS     Force            0.000009     0.000300     YES
 Maximum Displacement     0.000272     0.001800     YES
 RMS     Displacement     0.000125     0.001200     YES
 Predicted change in Energy=-9.669245D-09
 Optimization completed.
    -- Stationary point found.
                           ----------------------------
                           !   Optimized Parameters   !
                           ! (Angstroms and Degrees)  !
 --------------------------                            --------------------------
 ! Name  Definition              Value          Derivative Info.                !
 --------------------------------------------------------------------------------
 ! R1    R(1,2)                  1.3496         -DE/DX =    0.0                 !
 ! R2    R(1,12)                 1.0908         -DE/DX =    0.0                 !
 ! R3    R(1,13)                 1.0933         -DE/DX =    0.0                 !
 ! R4    R(2,3)                  1.4458         -DE/DX =    0.0                 !
 ! R5    R(2,14)                 1.0967         -DE/DX =    0.0                 !
 ! R6    R(3,4)                  1.36           -DE/DX =    0.0                 !
 ! R7    R(3,7)                  1.0973         -DE/DX =    0.0                 !
 ! R8    R(4,5)                  1.4458         -DE/DX =    0.0                 !
 ! R9    R(4,8)                  1.0973         -DE/DX =    0.0                 !
 ! R10   R(5,6)                  1.3496         -DE/DX =    0.0                 !
 ! R11   R(5,9)                  1.0967         -DE/DX =    0.0                 !
 ! R12   R(6,10)                 1.0933         -DE/DX =    0.0                 !
 ! R13   R(6,11)                 1.0908         -DE/DX =    0.0                 !
 ! A1    A(2,1,12)             121.6372         -DE/DX =    0.0                 !
 ! A2    A(2,1,13)             121.4036         -DE/DX =    0.0                 !
 ! A3    A(12,1,13)            116.9591         -DE/DX =    0.0                 !
 ! A4    A(1,2,3)              124.5885         -DE/DX =    0.0                 !
 ! A5    A(1,2,14)             119.0043         -DE/DX =    0.0                 !
 ! A6    A(3,2,14)             116.4071         -DE/DX =    0.0                 !
 ! A7    A(2,3,4)              124.36           -DE/DX =    0.0                 !
 ! A8    A(2,3,7)              116.8664         -DE/DX =    0.0                 !
 ! A9    A(4,3,7)              118.7736         -DE/DX =    0.0                 !
 ! A10   A(3,4,5)              124.36           -DE/DX =    0.0                 !
 ! A11   A(3,4,8)              118.7736         -DE/DX =    0.0                 !
 ! A12   A(5,4,8)              116.8664         -DE/DX =    0.0                 !
 ! A13   A(4,5,6)              124.5885         -DE/DX =    0.0                 !
 ! A14   A(4,5,9)              116.4071         -DE/DX =    0.0                 !
 ! A15   A(6,5,9)              119.0043         -DE/DX =    0.0                 !
 ! A16   A(5,6,10)             121.4036         -DE/DX =    0.0                 !
 ! A17   A(5,6,11)             121.6372         -DE/DX =    0.0                 !
 ! A18   A(10,6,11)            116.9591         -DE/DX =    0.0                 !
 ! D1    D(12,1,2,3)          -179.9999         -DE/DX =    0.0                 !
 ! D2    D(12,1,2,14)            0.0            -DE/DX =    0.0                 !
 ! D3    D(13,1,2,3)             0.0            -DE/DX =    0.0                 !
 ! D4    D(13,1,2,14)          180.0            -DE/DX =    0.0                 !
 ! D5    D(1,2,3,4)            179.9999         -DE/DX =    0.0                 !
 ! D6    D(1,2,3,7)             -0.0001         -DE/DX =    0.0                 !
 ! D7    D(14,2,3,4)             0.0            -DE/DX =    0.0                 !
 ! D8    D(14,2,3,7)           180.0            -DE/DX =    0.0                 !
 ! D9    D(2,3,4,5)            180.0            -DE/DX =    0.0                 !
 ! D10   D(2,3,4,8)              0.0            -DE/DX =    0.0                 !
 ! D11   D(7,3,4,5)              0.0            -DE/DX =    0.0                 !
 ! D12   D(7,3,4,8)            180.0            -DE/DX =    0.0                 !
 ! D13   D(3,4,5,6)            179.9999         -DE/DX =    0.0                 !
 ! D14   D(3,4,5,9)              0.0            -DE/DX =    0.0                 !
 ! D15   D(8,4,5,6)             -0.0001         -DE/DX =    0.0                 !
 ! D16   D(8,4,5,9)            180.0            -DE/DX =    0.0                 !
 ! D17   D(4,5,6,10)             0.0            -DE/DX =    0.0                 !
 ! D18   D(4,5,6,11)           180.0001         -DE/DX =    0.0                 !
 ! D19   D(9,5,6,10)           180.0            -DE/DX =    0.0                 !
 ! D20   D(9,5,6,11)             0.0            -DE/DX =    0.0                 !
 --------------------------------------------------------------------------------
 GradGradGradGradGradGradGradGradGradGradGradGradGradGradGradGradGradGrad

 1\1\GINC-CLODOMIRA\Freq\RBP86\TZVP\C6H8\DIEGOA\04-Oct-2019\0\\#N Geom=
 AllCheck Guess=TCheck SCRF=Check GenChk RBP86/TZVP Freq\\Title\\0,1\C,
 3.0831864242,-0.1694947472,0.0000040942\C,1.8677683698,0.4171362616,0.
 0000030022\C,0.6112374405,-0.2980310897,0.0000032397\C,-0.6112375318,0
 .298031029,0.0000032393\C,-1.8677684512,-0.4171362703,0.0000030022\C,-
 3.0831863726,0.1694947996,0.0000040942\H,0.6644671015,-1.3940709755,0.
 0000031085\H,-0.6644671898,1.394070867,0.0000031081\H,-1.8057905062,-1
 .512090173,0.0000026067\H,-3.1906159373,1.2575239991,0.0000051533\H,-4
 .002179489,-0.4181833257,0.0000047959\H,4.0021795858,0.4181835046,0.00
 00047959\H,3.1906161388,-1.2575240359,0.000005153\H,1.8057904172,1.512
 0901565,0.0000026069\\Version=EM64L-G09RevA.01\State=1-A\HF=-233.46987
 18\RMSD=1.823e-09\RMSF=1.033e-05\ZeroPoint=0.1150038\Thermal=0.1218546
 \Dipole=0.0000005,-0.0000002,0.0000007\DipoleDeriv=-0.3285729,0.052048
 2,0.0000003,-0.0086453,0.1082392,-0.0000002,0.0000012,-0.0000004,-0.31
 24554,0.2816357,-0.0168021,0.0000001,0.1764889,0.0943649,-0.0000002,-0
 .0000007,0.,-0.1360148,0.0064437,-0.0062164,0.,-0.0575639,0.1180118,0.
 0000001,-0.0000001,0.0000001,-0.1180491,0.0064437,-0.0062165,0.,-0.057
 5645,0.118012,-0.0000001,0.0000001,-0.0000001,-0.1180491,0.2816368,-0.
 0168023,-0.0000001,0.1764888,0.0943653,0.0000002,0.0000007,0.,-0.13601
 47,-0.328574,0.0520485,-0.0000003,-0.0086448,0.1082388,0.0000002,-0.00
 00012,0.0000004,-0.3124556,0.021673,0.0005797,0.,-0.0277873,-0.117667,
 0.,0.,0.,0.131602,0.021673,0.0005796,0.,-0.0277873,-0.1176671,0.,0.,0.
 ,0.131602,0.0269278,0.0425735,0.,-0.0351999,-0.1129245,-0.0000001,0.,0
 .,0.1346874,0.0471149,-0.03105,0.,0.0244459,-0.1012306,-0.0000002,0.00
 00004,-0.0000003,0.1500367,-0.0552222,-0.0411328,0.0000001,-0.0717384,
 0.0112061,0.,0.0000004,0.,0.1501933,-0.0552223,-0.0411328,-0.0000001,-
 0.0717385,0.0112061,0.,-0.0000004,0.,0.1501933,0.0471148,-0.03105,0.,0
 .024446,-0.1012307,0.0000002,-0.0000004,0.0000003,0.1500367,0.0269278,
 0.0425735,0.,-0.0351999,-0.1129243,0.0000001,0.,0.,0.1346874\Polar=176
 .6078618,-12.0812136,64.3484558,0.,0.,41.9119922\PG=C01 [X(C6H8)]\NIma
 g=0\\0.74238153,-0.05507914,0.63153310,0.00000056,-0.00000038,0.093914
 93,-0.39505497,0.14296500,-0.00000033,0.70240215,0.15771788,-0.1839769
 4,0.00000018,-0.09016194,0.64549395,-0.00000030,0.00000016,-0.04636073
 ,0.00000031,-0.00000031,0.12383034,-0.05796067,-0.00434770,0.,-0.18408
 282,-0.07986222,0.00000003,0.69157289,0.00860657,0.01488969,0.,-0.0776
 5871,-0.15201119,0.00000002,-0.07271122,0.63956538,-0.00000003,0.,0.00
 583350,0.00000002,0.00000002,-0.05836826,0.,0.,0.12203111,0.01121430,-
 0.00838743,0.,-0.06139541,0.00847575,-0.00000001,-0.34872722,0.1406442
 1,0.,0.69157292,-0.00630402,-0.00206368,0.,-0.00836659,0.01390670,0.,0
 .14064421,-0.18378798,0.,-0.07271121,0.63956552,0.,0.,0.00271863,0.,0.
 ,0.00399980,0.,0.,-0.04989067,0.,0.,0.12203111,-0.00640548,0.00186886,
 0.,0.01266659,0.00428718,0.,-0.06139542,-0.00836659,0.,-0.18408285,-0.
 07765874,-0.00000002,0.70240239,0.00063607,0.00189441,0.,0.00428718,-0
 .00340900,0.,0.00847576,0.01390670,0.,-0.07986224,-0.15201122,-0.00000
 002,-0.09016205,0.64549403,0.,0.,-0.00004551,0.,0.,0.01172504,0.000000
 01,0.,0.00399980,-0.00000003,-0.00000002,-0.05836828,-0.00000031,0.000
 00031,0.12383035,0.00206455,-0.00177895,0.,-0.00640548,0.00063607,0.,0
 .01121429,-0.00630402,0.,-0.05796069,0.00860659,0.00000003,-0.39505515
 ,0.15771800,0.00000030,0.74238187,-0.00177895,0.00006228,0.,0.00186886
 ,0.00189441,0.,-0.00838743,-0.00206368,0.,-0.00434770,0.01488969,0.,0.
 14296512,-0.18397700,-0.00000016,-0.05507916,0.63153338,0.,0.,-0.00006
 527,0.,0.,-0.00004551,0.,0.,0.00271863,0.,0.,0.00583351,0.00000033,-0.
 00000018,-0.04636071,-0.00000056,0.00000038,0.09391484,0.00148788,-0.0
 0110108,0.,0.00263037,-0.02625555,0.,-0.05399321,0.01073784,0.,0.00076
 159,0.02840568,0.,0.00124561,0.00211636,0.,-0.00007892,-0.00032853,0.,
 0.05596029,0.00102955,0.00134749,0.,0.00212463,-0.01482392,0.,0.012171
 02,-0.30371603,-0.00000003,0.00018243,-0.01372750,0.,-0.00204652,0.001
 05175,0.,0.00020791,0.00042340,0.,-0.01346106,0.32822756,0.,0.,-0.0014
 7845,0.00000001,0.,0.00273355,-0.00000001,-0.00000004,-0.03665348,0.,0
 .,0.00494439,0.,0.,-0.00586206,0.,0.,0.00000972,0.,0.00000003,0.023653
 10,-0.00007893,-0.00032853,0.,0.00124561,0.00211636,0.,0.00076159,0.02
 840568,0.,-0.05399321,0.01073785,0.,0.00263037,-0.02625557,0.,0.001487
 88,-0.00110108,0.,-0.00405069,0.00186276,0.,0.05596028,0.00020791,0.00
 042340,0.,-0.00204652,0.00105175,0.,0.00018242,-0.01372750,0.,0.012171
 02,-0.30371613,0.00000003,0.00212464,-0.01482393,0.,0.00102955,0.00134
 749,0.,0.00186276,0.00009925,0.,-0.01346106,0.32822765,0.,0.,0.0000097
 2,0.,0.,-0.00586206,0.,0.,0.00494439,0.00000001,0.00000004,-0.03665348
 ,-0.00000001,0.,0.00273356,0.,0.,-0.00147845,0.,0.,0.00840431,0.,-0.00
 000003,0.02365309,-0.00005150,0.00011856,0.,-0.00014048,0.00016463,0.,
 0.00155634,-0.00154544,0.,0.00234101,-0.02634286,0.,-0.05370396,0.0113
 1050,0.,-0.00004522,0.02969956,0.00000002,-0.00018366,0.00110279,0.,-0
 .00386180,-0.00201812,0.,0.05710168,-0.00013058,-0.00006933,0.,-0.0002
 9315,0.00054399,0.,0.00153658,0.00100447,0.,0.00178075,-0.01543008,0.,
 0.01292782,-0.30568309,-0.00000010,0.00001674,-0.01196232,0.,-0.001006
 97,0.00054413,0.,-0.00220733,-0.00017345,0.,-0.01474213,0.32927928,0.,
 0.,-0.00003571,0.,0.,-0.00018079,0.,0.,-0.00154096,0.,0.,0.00278727,0.
 ,-0.00000009,-0.03863932,0.,-0.00000003,0.00507710,0.,0.,0.00026619,0.
 ,0.,0.00336794,-0.00000002,0.00000012,0.02520688,0.00004372,-0.0000115
 6,0.,-0.00001099,-0.00009972,0.,-0.00007227,-0.00020705,0.,0.00162597,
 0.00191783,0.,0.00087883,0.02846177,0.00000002,-0.05553661,0.02004338,
 0.00000005,0.00012651,-0.00024479,0.,-0.00016505,-0.00092882,0.,-0.003
 98938,0.00179276,0.00000001,0.05256949,0.00007094,-0.00002202,0.,-0.00
 005339,-0.00002949,0.,0.00029018,0.00037596,0.,-0.00202608,0.00129568,
 0.,0.00006240,-0.01242517,-0.00000001,0.02340837,-0.31579716,-0.000000
 26,-0.00023706,-0.00000532,0.,0.00111712,0.00042030,0.,0.00218327,0.00
 065466,0.,-0.02855616,0.33575277,0.,0.,-0.00000906,0.,0.,0.00034823,0.
 ,0.,-0.00009335,0.,0.,-0.00709520,0.,-0.00000003,0.00465980,0.00000005
 ,-0.00000028,-0.03065547,0.,0.,0.00039492,0.,0.,0.00031263,0.,0.,0.009
 95430,-0.00000005,0.00000029,0.02015980,-0.00014935,-0.00011910,0.,-0.
 00023526,0.00037410,0.,-0.00065768,-0.00121066,0.,-0.00218279,0.004034
 42,0.00000002,-0.01879420,-0.01716481,0.,-0.24190939,-0.12354197,0.000
 00016,-0.00000463,0.00008731,0.,0.00012572,-0.00006911,0.,0.00091218,0
 .00010552,0.,0.00457731,0.00372142,0.,0.25834127,0.00000888,0.00008173
 ,0.,0.00025541,-0.00016998,0.,0.00024136,0.00084386,0.,0.00201237,-0.0
 0114529,0.,0.01408899,0.00963800,0.,-0.12841034,-0.13634086,0.00000007
 ,-0.00007485,-0.00001087,0.,0.00043267,0.00034323,0.,-0.00020947,0.001
 20432,0.,-0.02213189,-0.01022939,0.00000002,0.13376387,0.13578573,0.,0
 .,-0.00002144,0.,0.,-0.00160086,0.,0.,0.00016493,0.,0.,0.01116230,0.00
 000001,0.00000002,0.00376076,0.00000018,0.00000008,-0.02888218,0.,0.,0
 .00013480,0.,0.,-0.00022757,0.,0.,-0.00639385,-0.00000002,-0.00000001,
 0.00207462,-0.00000018,-0.00000008,0.01957950,-0.24190924,-0.12354188,
 -0.00000016,-0.01879420,-0.01716481,0.,-0.00218279,0.00403442,-0.00000
 002,-0.00065768,-0.00121067,0.,-0.00023526,0.00037410,0.,-0.00014935,-
 0.00011910,0.,0.00012572,-0.00006911,0.,-0.00000463,0.00008731,0.,0.00
 002472,-0.00001041,0.,0.00000554,0.00001254,0.,-0.00005344,0.00001687,
 0.,0.25834111,-0.12841024,-0.13634084,-0.00000007,0.01408899,0.0096380
 0,0.,0.00201237,-0.00114528,0.,0.00024136,0.00084386,0.,0.00025541,-0.
 00016998,0.,0.00000888,0.00008173,0.,0.00043267,0.00034323,0.,-0.00007
 485,-0.00001087,0.,0.00000429,0.00001052,0.,0.00000182,-0.00000028,0.,
 0.00001687,-0.00001071,0.,0.13376378,0.13578571,-0.00000018,-0.0000000
 8,-0.02888221,-0.00000001,-0.00000002,0.00376075,0.,0.,0.01116230,0.,0
 .,0.00016493,0.,0.,-0.00160086,0.,0.,-0.00002144,0.,0.,-0.00022757,0.,
 0.,0.00013480,0.,0.,0.00001160,0.,0.,-0.00008990,0.,0.,0.00032728,0.00
 000018,0.00000008,0.01957953,-0.05553664,0.02004339,-0.00000005,0.0008
 7883,0.02846177,-0.00000002,0.00162598,0.00191782,0.,-0.00007227,-0.00
 020705,0.,-0.00001099,-0.00009972,0.,0.00004372,-0.00001156,0.,-0.0001
 6505,-0.00092882,0.,0.00012651,-0.00024479,0.,-0.00005895,-0.00003195,
 0.,0.00000586,-0.00000562,0.,0.00000554,0.00000182,0.,0.00457731,-0.02
 213189,0.00000002,0.05256952,0.02340838,-0.31579697,0.00000026,0.00006
 240,-0.01242517,0.00000001,-0.00202608,0.00129568,0.,0.00029019,0.0003
 7596,0.,-0.00005339,-0.00002949,0.,0.00007094,-0.00002203,0.,0.0011171
 2,0.00042030,0.,-0.00023706,-0.00000532,0.,0.00001208,0.00000815,0.,-0
 .00000562,0.00000133,0.,0.00001253,-0.00000028,0.,0.00372142,-0.010229
 40,0.00000001,-0.02855617,0.33575257,-0.00000005,0.00000028,-0.0306555
 0,0.,0.00000003,0.00465980,0.,0.,-0.00709519,0.,0.,-0.00009335,0.,0.,0
 .00034823,0.,0.,-0.00000906,0.,0.,0.00031263,0.,0.,0.00039492,0.,0.,0.
 00001898,0.,0.,0.00001970,0.,0.,-0.00008990,0.,-0.00000002,0.00207463,
 0.00000005,-0.00000029,0.02015983,-0.00004522,0.02969956,-0.00000002,-
 0.05370394,0.01131050,0.,0.00234101,-0.02634285,0.,0.00155634,-0.00154
 544,0.,-0.00014048,0.00016463,0.,-0.00005150,0.00011856,0.,-0.00386180
 ,-0.00201812,0.,-0.00018366,0.00110279,0.,0.00009902,0.00026235,0.,-0.
 00005895,0.00001208,0.,0.00002472,0.00000429,0.,0.00091218,-0.00020947
 ,0.,-0.00398938,0.00218327,0.,0.05710167,0.00001674,-0.01196232,0.,0.0
 1292783,-0.30568311,0.00000010,0.00178074,-0.01543007,0.,0.00153658,0.
 00100447,0.,-0.00029315,0.00054399,0.,-0.00013058,-0.00006933,0.,-0.00
 220733,-0.00017345,0.,-0.00100697,0.00054413,0.,0.00026235,0.00006875,
 0.,-0.00003195,0.00000815,0.,-0.00001041,0.00001052,0.,0.00010552,0.00
 120432,0.,0.00179276,0.00065466,0.,-0.01474214,0.32927929,0.,0.0000000
 3,0.00507709,0.,0.00000009,-0.03863930,0.,0.,0.00278726,0.,0.,-0.00154
 096,0.,0.,-0.00018079,0.,0.,-0.00003571,0.,0.,0.00336794,0.,0.,0.00026
 619,0.,0.,0.00010037,0.,0.,0.00001898,0.,0.,0.00001160,0.,0.,-0.006393
 85,-0.00000001,0.,0.00995430,0.00000002,-0.00000012,0.02520687\\-0.000
 00558,0.00000831,-0.00000003,-0.00001504,-0.00001359,-0.00000006,0.000
 02858,0.00000933,0.00000005,-0.00002858,-0.00000930,0.00000005,0.00001
 494,0.00001364,-0.00000006,0.00000558,-0.00000831,-0.00000003,0.000001
 21,-0.00000917,-0.00000001,-0.00000122,0.00000914,-0.00000001,0.000000
 66,-0.00000760,0.00000001,0.00000037,0.00001453,0.00000001,-0.00002042
 ,0.00000738,0.00000003,0.00002049,-0.00000734,0.00000003,-0.00000035,-
 0.00001461,0.00000001,-0.00000065,0.00000758,0.00000001\\\@


 ACTORS ARE SO FORTUNATE.  THEY CAN CHOOSE WHETHER
 THEY WILL APPEAR IN A TRAGEDY OR IN COMEDY,
 WHETHER THEY WILL SUFFER OF MAKE MERRY,
 LAUGH OR SHED TEARS.  BUT IN REAL LIFE IT IS DIFFERENT.
 MOST MEN AND WOMEN ARE FORCED TO PERFORM
 PARTS FOR WHICH THEY HAVE NO QUALIFICATIONS.
 THE WORLD IS A STAGE, BUT THE PLAY IS BADLY CAST.

                                   -- OSCAR WILDE
 Job cpu time:  0 days  0 hours  3 minutes 22.5 seconds.
 File lengths (MBytes):  RWF=     43 Int=      0 D2E=      0 Chk=      4 Scr=      1
 Normal termination of Gaussian 09 at Fri Oct  4 01:21:50 2019.
