 Entering Gaussian System, Link 0=g09
 Input=td-opt.com
 Output=td-opt.log
 Initial command:
 /home/diegoa/progs/g09/l1.exe /home/diegoa/g09scratch/Gau-27874.inp -scrdir=/home/diegoa/g09scratch/
 Default is to use a total of   4 processors:
                                4 via shared-memory
                                1 via Linda
 Entering Link 1 = /home/diegoa/progs/g09/l1.exe PID=     27879.
  
 Copyright (c) 1988,1990,1992,1993,1995,1998,2003,2009, Gaussian, Inc.
                  All Rights Reserved.
  
 This is part of the Gaussian(R) 09 program.  It is based on
 the Gaussian(R) 03 system (copyright 2003, Gaussian, Inc.),
 the Gaussian(R) 98 system (copyright 1998, Gaussian, Inc.),
 the Gaussian(R) 94 system (copyright 1995, Gaussian, Inc.),
 the Gaussian 92(TM) system (copyright 1992, Gaussian, Inc.),
 the Gaussian 90(TM) system (copyright 1990, Gaussian, Inc.),
 the Gaussian 88(TM) system (copyright 1988, Gaussian, Inc.),
 the Gaussian 86(TM) system (copyright 1986, Carnegie Mellon
 University), and the Gaussian 82(TM) system (copyright 1983,
 Carnegie Mellon University). Gaussian is a federally registered
 trademark of Gaussian, Inc.
  
 This software contains proprietary and confidential information,
 including trade secrets, belonging to Gaussian, Inc.
  
 This software is provided under written license and may be
 used, copied, transmitted, or stored only in accord with that
 written license.
  
 The following legend is applicable only to US Government
 contracts under FAR:
  
                    RESTRICTED RIGHTS LEGEND
  
 Use, reproduction and disclosure by the US Government is
 subject to restrictions as set forth in subparagraphs (a)
 and (c) of the Commercial Computer Software - Restricted
 Rights clause in FAR 52.227-19.
  
 Gaussian, Inc.
 340 Quinnipiac St., Bldg. 40, Wallingford CT 06492
  
  
 ---------------------------------------------------------------
 Warning -- This program may not be used in any manner that
 competes with the business of Gaussian, Inc. or will provide
 assistance to any competitor of Gaussian, Inc.  The licensee
 of this program is prohibited from giving any competitor of
 Gaussian, Inc. access to this program.  By using this program,
 the user acknowledges that Gaussian, Inc. is engaged in the
 business of creating and licensing software in the field of
 computational chemistry and represents and warrants to the
 licensee that it is not a competitor of Gaussian, Inc. and that
 it will not use this program in any manner prohibited above.
 ---------------------------------------------------------------
  

 Cite this work as:
 Gaussian 09, Revision A.01,
 M. J. Frisch, G. W. Trucks, H. B. Schlegel, G. E. Scuseria, 
 M. A. Robb, J. R. Cheeseman, G. Scalmani, V. Barone, B. Mennucci, 
 G. A. Petersson, H. Nakatsuji, M. Caricato, X. Li, H. P. Hratchian, 
 A. F. Izmaylov, J. Bloino, G. Zheng, J. L. Sonnenberg, M. Hada, 
 M. Ehara, K. Toyota, R. Fukuda, J. Hasegawa, M. Ishida, T. Nakajima, 
 Y. Honda, O. Kitao, H. Nakai, T. Vreven, J. A. Montgomery, Jr., 
 J. E. Peralta, F. Ogliaro, M. Bearpark, J. J. Heyd, E. Brothers, 
 K. N. Kudin, V. N. Staroverov, R. Kobayashi, J. Normand, 
 K. Raghavachari, A. Rendell, J. C. Burant, S. S. Iyengar, J. Tomasi, 
 M. Cossi, N. Rega, J. M. Millam, M. Klene, J. E. Knox, J. B. Cross, 
 V. Bakken, C. Adamo, J. Jaramillo, R. Gomperts, R. E. Stratmann, 
 O. Yazyev, A. J. Austin, R. Cammi, C. Pomelli, J. W. Ochterski, 
 R. L. Martin, K. Morokuma, V. G. Zakrzewski, G. A. Voth, 
 P. Salvador, J. J. Dannenberg, S. Dapprich, A. D. Daniels, 
 O. Farkas, J. B. Foresman, J. V. Ortiz, J. Cioslowski, 
 and D. J. Fox, Gaussian, Inc., Wallingford CT, 2009.
 
 ******************************************
 Gaussian 09:  EM64L-G09RevA.01  8-May-2009
                 8-Oct-2019 
 ******************************************
 %chk=td-opt.chk
 %nProcShared=4
 Will use up to    4 processors via shared memory.
 Default route:  MP2=Direct MaxDisk=1000GB DenFit
 ---------------------------------
 # bp86/TZVP TD(root=1) opt nosymm
 ---------------------------------
 1/14=-1,18=20,19=15,26=3,38=1/1,3;
 2/9=110,12=2,15=1,17=6,18=5,40=1/2;
 3/5=19,7=101,11=2,16=1,25=1,30=1,71=1,74=404,82=47/1,2,8,3;
 4//1;
 5/5=2,38=5/2;
 8/6=1,10=1,107=1/1;
 9/8=1,15=2,42=1/14;
 10/5=4,31=1/2;
 6/7=2,8=2,9=2,10=2/1;
 7/12=6,13=5,14=1,30=1/1,2,3,16;
 1/14=-1,18=20,19=15/3(2);
 2/9=110,15=1/2;
 99//99;
 2/9=110,15=1/2;
 3/5=19,7=101,11=2,16=1,25=1,30=1,71=1,74=404,82=47/1,2,8,3;
 4/5=5,16=3/1;
 5/5=2,38=5/2;
 8/6=1,10=1,107=1/1;
 9/8=1,15=2,42=1,49=4/14;
 10/5=4,31=1/2;
 7/12=6,13=5,14=1,30=1/1,2,3,16;
 1/14=-1,18=20,19=15/3(-8);
 2/9=110,15=1/2;
 6/7=2,8=2,9=2,10=2/1;
 99//99;
 -----
 Title
 -----
 Symbolic Z-matrix:
 Charge =  0 Multiplicity = 1
 6                    -3.08333   0.16684   0. 
 6                    -1.86741  -0.41875  0. 
 6                    -0.61149   0.2975    0. 
 6                     0.61149  -0.2975    0. 
 6                     1.86741   0.41875  0. 
 6                     3.08333  -0.16684   0. 
 1                    -0.66567   1.3935    0. 
 1                     0.66567  -1.3935    0. 
 1                     1.80449   1.51365  0. 
 1                     3.1917   -1.25477   0. 
 1                     4.00182   0.42163   0. 
 1                    -4.00182  -0.42163   0. 
 1                    -3.1917    1.25477   0. 
 1                    -1.80449  -1.51365  0. 
 

 GradGradGradGradGradGradGradGradGradGradGradGradGradGradGradGradGradGrad
 Berny optimization.
 Initialization pass.
                           ----------------------------
                           !    Initial Parameters    !
                           ! (Angstroms and Degrees)  !
 --------------------------                            --------------------------
 ! Name  Definition              Value          Derivative Info.                !
 --------------------------------------------------------------------------------
 ! R1    R(1,2)                  1.3496         estimate D2E/DX2                !
 ! R2    R(1,12)                 1.0908         estimate D2E/DX2                !
 ! R3    R(1,13)                 1.0933         estimate D2E/DX2                !
 ! R4    R(2,3)                  1.4458         estimate D2E/DX2                !
 ! R5    R(2,14)                 1.0967         estimate D2E/DX2                !
 ! R6    R(3,4)                  1.36           estimate D2E/DX2                !
 ! R7    R(3,7)                  1.0973         estimate D2E/DX2                !
 ! R8    R(4,5)                  1.4458         estimate D2E/DX2                !
 ! R9    R(4,8)                  1.0973         estimate D2E/DX2                !
 ! R10   R(5,6)                  1.3496         estimate D2E/DX2                !
 ! R11   R(5,9)                  1.0967         estimate D2E/DX2                !
 ! R12   R(6,10)                 1.0933         estimate D2E/DX2                !
 ! R13   R(6,11)                 1.0908         estimate D2E/DX2                !
 ! A1    A(2,1,12)             121.6372         estimate D2E/DX2                !
 ! A2    A(2,1,13)             121.4037         estimate D2E/DX2                !
 ! A3    A(12,1,13)            116.9591         estimate D2E/DX2                !
 ! A4    A(1,2,3)              124.5886         estimate D2E/DX2                !
 ! A5    A(1,2,14)             119.0043         estimate D2E/DX2                !
 ! A6    A(3,2,14)             116.4071         estimate D2E/DX2                !
 ! A7    A(2,3,4)              124.36           estimate D2E/DX2                !
 ! A8    A(2,3,7)              116.8664         estimate D2E/DX2                !
 ! A9    A(4,3,7)              118.7737         estimate D2E/DX2                !
 ! A10   A(3,4,5)              124.36           estimate D2E/DX2                !
 ! A11   A(3,4,8)              118.7737         estimate D2E/DX2                !
 ! A12   A(5,4,8)              116.8664         estimate D2E/DX2                !
 ! A13   A(4,5,6)              124.5886         estimate D2E/DX2                !
 ! A14   A(4,5,9)              116.4071         estimate D2E/DX2                !
 ! A15   A(6,5,9)              119.0043         estimate D2E/DX2                !
 ! A16   A(5,6,10)             121.4037         estimate D2E/DX2                !
 ! A17   A(5,6,11)             121.6372         estimate D2E/DX2                !
 ! A18   A(10,6,11)            116.9591         estimate D2E/DX2                !
 ! D1    D(12,1,2,3)          -179.9999         estimate D2E/DX2                !
 ! D2    D(12,1,2,14)           -0.0001         estimate D2E/DX2                !
 ! D3    D(13,1,2,3)             0.0001         estimate D2E/DX2                !
 ! D4    D(13,1,2,14)          179.9999         estimate D2E/DX2                !
 ! D5    D(1,2,3,4)            179.9999         estimate D2E/DX2                !
 ! D6    D(1,2,3,7)             -0.0002         estimate D2E/DX2                !
 ! D7    D(14,2,3,4)             0.0            estimate D2E/DX2                !
 ! D8    D(14,2,3,7)           180.0            estimate D2E/DX2                !
 ! D9    D(2,3,4,5)            179.9999         estimate D2E/DX2                !
 ! D10   D(2,3,4,8)              0.0            estimate D2E/DX2                !
 ! D11   D(7,3,4,5)              0.0            estimate D2E/DX2                !
 ! D12   D(7,3,4,8)            180.0            estimate D2E/DX2                !
 ! D13   D(3,4,5,6)            179.9999         estimate D2E/DX2                !
 ! D14   D(3,4,5,9)              0.0            estimate D2E/DX2                !
 ! D15   D(8,4,5,6)             -0.0002         estimate D2E/DX2                !
 ! D16   D(8,4,5,9)            180.0            estimate D2E/DX2                !
 ! D17   D(4,5,6,10)             0.0001         estimate D2E/DX2                !
 ! D18   D(4,5,6,11)          -179.9999         estimate D2E/DX2                !
 ! D19   D(9,5,6,10)           179.9999         estimate D2E/DX2                !
 ! D20   D(9,5,6,11)            -0.0001         estimate D2E/DX2                !
 --------------------------------------------------------------------------------
 Trust Radius=3.00D-01 FncErr=1.00D-07 GrdErr=1.00D-06
 Number of steps in this run=  61 maximum allowed number of steps= 100.
 GradGradGradGradGradGradGradGradGradGradGradGradGradGradGradGradGradGrad

                          Input orientation:                          
 ---------------------------------------------------------------------
 Center     Atomic      Atomic             Coordinates (Angstroms)
 Number     Number       Type             X           Y           Z
 ---------------------------------------------------------------------
      1          6           0       -3.083331    0.166837    0.000001
      2          6           0       -1.867408   -0.418746   -0.000001
      3          6           0       -0.611494    0.297504    0.000000
      4          6           0        0.611494   -0.297504    0.000000
      5          6           0        1.867408    0.418746   -0.000001
      6          6           0        3.083331   -0.166837    0.000001
      7          1           0       -0.665669    1.393498    0.000000
      8          1           0        0.665669   -1.393498    0.000000
      9          1           0        1.804486    1.513646   -0.000001
     10          1           0        3.191699   -1.254773    0.000002
     11          1           0        4.001817    0.421633    0.000001
     12          1           0       -4.001818   -0.421634    0.000001
     13          1           0       -3.191699    1.254773    0.000002
     14          1           0       -1.804486   -1.513646   -0.000001
 ---------------------------------------------------------------------
                    Distance matrix (angstroms):
                    1          2          3          4          5
     1  C    0.000000
     2  C    1.349584   0.000000
     3  C    2.475288   1.445799   0.000000
     4  C    3.723888   2.481865   1.360049   0.000000
     5  C    4.957144   3.827564   2.481865   1.445799   0.000000
     6  C    6.175683   4.957144   3.723888   2.475288   1.349584
     7  H    2.711049   2.174490   1.097332   2.119111   2.714152
     8  H    4.060745   2.714152   2.119111   1.097332   2.174490
     9  H    5.069975   4.149331   2.704803   2.168754   1.096707
    10  H    6.434048   5.127719   4.107778   2.752058   2.134107
    11  H    7.089728   5.929084   4.614981   3.465754   2.134411
    12  H    1.090833   2.134412   3.465755   4.614982   5.929085
    13  H    1.093320   2.134107   2.752058   4.107778   5.127719
    14  H    2.111745   1.096707   2.168754   2.704803   4.149331
                    6          7          8          9         10
     6  C    0.000000
     7  H    4.060745   0.000000
     8  H    2.711049   3.088658   0.000000
     9  H    2.111745   2.473075   3.122241   0.000000
    10  H    1.093320   4.678956   2.529836   3.096531   0.000000
    11  H    1.090832   4.767593   3.797971   2.453723   1.861888
    12  H    7.089729   3.797972   4.767594   6.120333   7.241603
    13  H    6.434048   2.529836   4.678956   5.002887   6.858979
    14  H    5.069975   3.122241   2.473075   4.710539   5.002887
                   11         12         13         14
    11  H    0.000000
    12  H    8.047936   0.000000
    13  H    7.241602   1.861890   0.000000
    14  H    6.120332   2.453723   3.096531   0.000000
 Symmetry turned off by external request.
 Stoichiometry    C6H8
 Framework group  C2[X(C6H8)]
 Deg. of freedom    19
 Full point group                 C2      NOp   2
 Rotational constants (GHZ):     26.5126956      1.3260852      1.2629179
 Standard basis: TZVP (5D, 7F)
 Integral buffers will be    131072 words long.
 Raffenetti 2 integral format.
 Two-electron integral symmetry is turned off.
   162 basis functions,   274 primitive gaussians,   168 cartesian basis functions
    22 alpha electrons       22 beta electrons
       nuclear repulsion energy       193.1647414213 Hartrees.
 NAtoms=   14 NActive=   14 NUniq=   14 SFac= 7.50D-01 NAtFMM=   80 NAOKFM=F Big=F
 Standard density basis: TZVPFit (5D, 7F)
   300 Density fitting functions
 One-electron integrals computed using PRISM.
 NBasis=   162 RedAO= T  NBF=   162
 NBsUse=   162 1.00D-06 NBFU=   162
 NBasis=      162 NBas6D=      168 NTT=       13203   NTT6D=    14196
 NDBShl=      124 NDBF=        300 NDBF6D=      336  NNucDB=        0
 IDenFi=        2 ISolve=        0 FullAP=F BlkAPC=T NucTyp=        0
 TolInv= 1.00D-05 TolIt=  1.00D-10 IR12=0.
 Symmetry not used in FoFDir.
 MinBra= 0 MaxBra= 3 Meth= 1.
 IRaf=       0 NMat=   1 IRICut=       1 DoRegI=T DoRafI=F ISym2E= 0 JSym2E=0.
  NDBF=   300  NBFD=   300
 NRank=   300 NBFDU=   300
 S*AI*S=  6.77444509405    
 Harris functional with IExCor=  404 diagonalized for initial guess.
 ExpMin= 9.52D-02 ExpMax= 1.36D+04 ExpMxC= 4.63D+02 IAcc=2 IRadAn=         0 AccDes= 0.00D+00
 HarFok:  IExCor=  404 AccDes= 0.00D+00 IRadAn=         0 IDoV= 1
 ScaDFX=  1.000000  1.000000  1.000000  1.000000
 FoFCou: FMM=F IPFlag=           0 FMFlag=      100000 FMFlg1=           0
         NFxFlg=           0 DoJE=T BraDBF=F KetDBF=T FulRan=T
         Omega=  0.000000  0.000000  1.000000  0.000000  0.000000 ICntrl=     500 IOpCl=  0
         NMat0=    1 NMatS0=    1 NMatT0=    0 NMatD0=    1 NMtDS0=    0 NMtDT0=    0
         I1Cent=           4 NGrid=           0.
 Symmetry not used in FoFCou.
 Requested convergence on RMS density matrix=1.00D-08 within 128 cycles.
 Requested convergence on MAX density matrix=1.00D-06.
 Requested convergence on             energy=1.00D-06.
 No special actions if energy rises.
 FoFCou: FMM=F IPFlag=           0 FMFlag=      100000 FMFlg1=           0
         NFxFlg=           0 DoJE=T BraDBF=T KetDBF=F FulRan=T
         Omega=  0.000000  0.000000  1.000000  0.000000  0.000000 ICntrl=     500 IOpCl=  0
         NMat0=    1 NMatS0=    1 NMatT0=    0 NMatD0=    1 NMtDS0=    0 NMtDT0=    0
         I1Cent=           5 NGrid=           0.
 Symmetry not used in FoFCou.
 Initial convergence to 1.0D-05 achieved.  Increase integral accuracy.
 SCF Done:  E(RB-P86) =  -233.469871810     A.U. after   14 cycles
             Convg  =    0.6459D-08             -V/T =  2.0052
 ExpMin= 9.52D-02 ExpMax= 1.36D+04 ExpMxC= 4.63D+02 IAcc=3 IRadAn=         5 AccDes= 0.00D+00
 HarFok:  IExCor=  205 AccDes= 0.00D+00 IRadAn=         5 IDoV=-2
 ScaDFX=  1.000000  1.000000  1.000000  1.000000
 Range of M.O.s used for correlation:     7   162
 NBasis=   162 NAE=    22 NBE=    22 NFC=     6 NFV=     0
 NROrb=    156 NOA=    16 NOB=    16 NVA=   140 NVB=   140

 **** Warning!!: The largest alpha MO coefficient is  0.31399874D+02

    12 initial guesses have been made.
 Convergence on wavefunction:    0.000001000000000
 Iteration     1 Dimension    12 NMult    12
 CISAX will form    12 AO SS matrices at one time.
 New state      1 was old state      2
 New state      2 was old state      1
 New state      3 was old state      4
 Iteration     2 Dimension    24 NMult    24
 New state      1 was old state      2
 New state      2 was old state      1
 Iteration     3 Dimension    27 NMult    27
 Iteration     4 Dimension    30 NMult    30
 Iteration     5 Dimension    33 NMult    33
 Iteration     6 Dimension    36 NMult    36
 Iteration     7 Dimension    39 NMult    39
 Iteration     8 Dimension    42 NMult    42
 Iteration     9 Dimension    45 NMult    45
 Iteration    10 Dimension    48 NMult    48
 Iteration    11 Dimension    51 NMult    51
 Iteration    12 Dimension    54 NMult    54
 Iteration    13 Dimension    57 NMult    57
 Iteration    14 Dimension    60 NMult    60
 Iteration    15 Dimension    63 NMult    63
 Iteration    16 Dimension    66 NMult    66
 Iteration    17 Dimension    69 NMult    69
 Iteration    18 Dimension    72 NMult    72
 Iteration    19 Dimension    75 NMult    75
 Iteration    20 Dimension    78 NMult    78
 Iteration    21 Dimension    81 NMult    81
 Iteration    22 Dimension    84 NMult    84
 Iteration    23 Dimension    87 NMult    87
 Iteration    24 Dimension    90 NMult    90
 Iteration    25 Dimension    93 NMult    93
 Iteration    26 Dimension    96 NMult    96
 Iteration    27 Dimension    99 NMult    99
 Iteration    28 Dimension   101 NMult   101
 Iteration    29 Dimension   103 NMult   103
 Iteration    30 Dimension   105 NMult   105
 Iteration    31 Dimension   107 NMult   107
 Iteration    32 Dimension   109 NMult   109
 Iteration    33 Dimension   110 NMult   110
 Iteration    34 Dimension   111 NMult   111
 Iteration    35 Dimension   112 NMult   112
 Iteration    36 Dimension   113 NMult   113
 ***********************************************************************
 Excited states from <AA,BB:AA,BB> singles matrix:
 ***********************************************************************
 
 Ground to excited state transition electric dipole moments (Au):
       state          X           Y           Z        Dip. S.      Osc.
         1         3.0116     -0.2214      0.0000      9.1187      0.9972
         2         0.0000      0.0000      0.0000      0.0000      0.0000
         3         0.0000      0.0000      0.0000      0.0000      0.0000
 Ground to excited state transition velocity dipole moments (Au):
       state          X           Y           Z        Dip. S.      Osc.
         1        -0.4771      0.0378      0.0000      0.2290      0.9309
         2         0.0000      0.0000      0.0000      0.0000      0.0000
         3         0.0000      0.0000      0.0000      0.0000      0.0000
 Ground to excited state transition magnetic dipole moments (Au):
       state          X           Y           Z
         1         0.0000      0.0000      0.0000
         2         0.0000      0.0000      0.2175
         3         0.1928     -0.1743      0.0000
 <0|del|b> * <b|rxdel|0> + <0|del|b> * <b|delr+rdel|0>
 Rotatory Strengths (R) in cgs (10**-40 erg-esu-cm/Gauss)
       state          XX          YY          ZZ    R(velocity)
         1         0.0003      0.0014      0.0006      0.0008
 Total R(velocity) tensor for State=          1
                 1             2             3 
      1   0.316938D-03  0.400225D-02 -0.119951D-02
      2   0.108143D-03  0.136561D-02 -0.403931D-03
      3  -0.516969D-05 -0.652820D-04  0.632651D-03
         2         0.0000      0.0000      0.0000      0.0000
 Total R(velocity) tensor for State=          2
                 1             2             3 
      1  -0.595771D-05  0.183049D-05 -0.120580D-04
      2   0.000000D+00 -0.472824D-05  0.437539D-05
      3   0.000000D+00  0.000000D+00  0.000000D+00
         3         0.0001      0.0003      0.0002      0.0002
 Total R(velocity) tensor for State=          3
                 1             2             3 
      1   0.102172D-03  0.284756D-03  0.000000D+00
      2   0.102646D-03  0.286076D-03  0.000000D+00
      3   0.840697D-05 -0.638816D-05  0.231736D-03
 1/2[<0|r|b>*<b|rxdel|0> + (<0|rxdel|b>*<b|r|0>)*]
 Rotatory Strengths (R) in cgs (10**-40 erg-esu-cm/Gauss)
       state          XX          YY          ZZ     R(length)     R(au)
         1         0.0021      0.0003      0.0000      0.0008      0.0000
         2         0.0000      0.0000      0.0000      0.0000      0.0000
         3         0.0005      0.0001      0.0000      0.0002      0.0000
  1/2[<0|del|b>*<b|r|0> + (<0|r|b>*<b|del|0>)*] (Au)
       state          X           Y           Z        Dip. S.   Osc.(frdel)
         1        -1.4368     -0.0084      0.0000      1.4452      0.9635
         2         0.0000      0.0000      0.0000      0.0000      0.0000
         3         0.0000      0.0000      0.0000      0.0000      0.0000
 Ground to excited state transition densities written to RWF  633

 Excitation energies and oscillator strengths:
 
 Excited state symmetry could not be determined.
 Excited State   1:      Singlet-?Sym    4.4637 eV  277.76 nm  f=0.9972  <S**2>=0.000
      22 -> 23         0.70883
      22 <- 23        -0.14076
 This state for optimization and/or second-order correction.
 Copying the excited state density for this state as the 1-particle RhoCI density.
 
 Excited state symmetry could not be determined.
 Excited State   2:      Singlet-?Sym    5.0364 eV  246.18 nm  f=0.0000  <S**2>=0.000
      21 -> 23         0.52292
      22 -> 24         0.47573
 
 Excited state symmetry could not be determined.
 Excited State   3:      Singlet-?Sym    6.1141 eV  202.78 nm  f=0.0000  <S**2>=0.000
      20 -> 23         0.70285
 SavETr:  write IOETrn=   770 NScale= 10 NData=  16 NLR=1 LETran=      64.
          IDoAtm=11111111111111
          Differentiating once with respect to electric field.
                with respect to dipole field.
          Differentiating once with respect to nuclear coordinates.
          There are     1 degrees of freedom in the 1st order CPHF.  IDoFFX=0.
 FoFCou: FMM=F IPFlag=           0 FMFlag=      100000 FMFlg1=           0
         NFxFlg=           0 DoJE=T BraDBF=T KetDBF=F FulRan=T
         Omega=  0.000000  0.000000  1.000000  0.000000  0.000000 ICntrl=     500 IOpCl=  0
         NMat0=    1 NMatS0=    1 NMatT0=    0 NMatD0=    1 NMtDS0=    0 NMtDT0=    0
         I1Cent=           5 NGrid=           0.
 Symmetry not used in FoFCou.
 LinEq1:  Iter=  0 NonCon=     1 RMS=1.46D-02 Max=5.99D-01
 AX will form     1 AO Fock derivatives at one time.
 LinEq1:  Iter=  1 NonCon=     1 RMS=4.15D-03 Max=1.24D-01
 LinEq1:  Iter=  2 NonCon=     1 RMS=3.94D-03 Max=1.04D-01
 LinEq1:  Iter=  3 NonCon=     1 RMS=2.26D-03 Max=4.06D-02
 LinEq1:  Iter=  4 NonCon=     1 RMS=8.77D-04 Max=1.69D-02
 LinEq1:  Iter=  5 NonCon=     1 RMS=3.85D-04 Max=6.99D-03
 LinEq1:  Iter=  6 NonCon=     1 RMS=1.45D-04 Max=2.52D-03
 LinEq1:  Iter=  7 NonCon=     1 RMS=2.27D-05 Max=2.74D-04
 LinEq1:  Iter=  8 NonCon=     1 RMS=4.57D-06 Max=1.12D-04
 LinEq1:  Iter=  9 NonCon=     1 RMS=5.95D-06 Max=2.74D-04
 LinEq1:  Iter= 10 NonCon=     1 RMS=2.17D-06 Max=3.03D-05
 LinEq1:  Iter= 11 NonCon=     1 RMS=3.06D-07 Max=4.68D-06
 LinEq1:  Iter= 12 NonCon=     1 RMS=7.89D-08 Max=2.18D-06
 LinEq1:  Iter= 13 NonCon=     1 RMS=8.19D-08 Max=1.52D-06
 LinEq1:  Iter= 14 NonCon=     1 RMS=1.77D-08 Max=1.97D-07
 LinEq1:  Iter= 15 NonCon=     1 RMS=5.06D-09 Max=1.03D-07
 LinEq1:  Iter= 16 NonCon=     1 RMS=3.24D-09 Max=4.29D-08
 LinEq1:  Iter= 17 NonCon=     1 RMS=5.62D-10 Max=7.23D-09
 LinEq1:  Iter= 18 NonCon=     0 RMS=6.37D-11 Max=5.76D-10
 Linear equations converged to 1.000D-10 1.000D-09 after    18 iterations.
 End of Minotr Frequency-dependent properties file   721 does not exist.
 End of Minotr Frequency-dependent properties file   722 does not exist.

 **********************************************************************

            Population analysis using the SCF density.

 **********************************************************************

 Alpha  occ. eigenvalues --   -9.90926  -9.90924  -9.90892  -9.90843  -9.89924
 Alpha  occ. eigenvalues --   -9.89924  -0.75100  -0.71229  -0.65623  -0.56658
 Alpha  occ. eigenvalues --   -0.50726  -0.50206  -0.44085  -0.41717  -0.38717
 Alpha  occ. eigenvalues --   -0.36437  -0.34142  -0.32330  -0.31317  -0.30986
 Alpha  occ. eigenvalues --   -0.26684  -0.19810
 Alpha virt. eigenvalues --   -0.08842  -0.00885   0.02632   0.03345   0.05378
 Alpha virt. eigenvalues --    0.05827   0.07181   0.08596   0.10497   0.11408
 Alpha virt. eigenvalues --    0.12629   0.14789   0.16248   0.17548   0.17889
 Alpha virt. eigenvalues --    0.19111   0.20857   0.20891   0.23598   0.24029
 Alpha virt. eigenvalues --    0.25653   0.26098   0.26111   0.27666   0.30088
 Alpha virt. eigenvalues --    0.32631   0.33392   0.33446   0.33847   0.36330
 Alpha virt. eigenvalues --    0.38916   0.41118   0.41751   0.42023   0.43166
 Alpha virt. eigenvalues --    0.44350   0.45273   0.47475   0.51830   0.52492
 Alpha virt. eigenvalues --    0.53575   0.55682   0.58008   0.60448   0.60889
 Alpha virt. eigenvalues --    0.63223   0.68039   0.68050   1.12114   1.13026
 Alpha virt. eigenvalues --    1.14397   1.16045   1.18096   1.19110   1.19765
 Alpha virt. eigenvalues --    1.20088   1.21192   1.21295   1.22967   1.23017
 Alpha virt. eigenvalues --    1.23111   1.24394   1.30977   1.32854   1.34740
 Alpha virt. eigenvalues --    1.35845   1.36472   1.36513   1.38886   1.39063
 Alpha virt. eigenvalues --    1.39725   1.41261   1.41263   1.43418   1.48272
 Alpha virt. eigenvalues --    1.54025   1.54174   1.62205   1.65328   1.67401
 Alpha virt. eigenvalues --    1.68526   1.70729   1.73410   1.73467   1.76389
 Alpha virt. eigenvalues --    1.76946   1.77029   1.77548   1.77861   1.81339
 Alpha virt. eigenvalues --    1.84300   1.85598   1.87085   1.92414   1.98844
 Alpha virt. eigenvalues --    1.99322   1.99448   2.03626   2.06568   2.08074
 Alpha virt. eigenvalues --    2.14288   2.19393   2.20071   2.20225   2.26671
 Alpha virt. eigenvalues --    2.32903   2.35779   2.38911   2.40842   2.43056
 Alpha virt. eigenvalues --    2.48500   2.48613   2.49069   2.53391   2.54016
 Alpha virt. eigenvalues --    2.55007   2.59569   2.63936   2.67476   2.68435
 Alpha virt. eigenvalues --    2.70636   2.90422   2.92915   2.93046   2.95400
 Alpha virt. eigenvalues --    3.01654   3.05113   3.07902   3.11104   3.16938
 Alpha virt. eigenvalues --    3.29470   3.31266   3.47488   3.50761  21.16497
 Alpha virt. eigenvalues --   21.33916  21.48749  21.79508  21.84569  21.85660
          Condensed to atoms (all electrons):
              1          2          3          4          5          6
     1  C    5.001286   0.556053  -0.045888   0.009081  -0.002163   0.000159
     2  C    0.556053   4.914241   0.362697  -0.011309   0.012750  -0.002163
     3  C   -0.045888   0.362697   5.002552   0.511871  -0.011309   0.009081
     4  C    0.009081  -0.011309   0.511871   5.002552   0.362697  -0.045888
     5  C   -0.002163   0.012750  -0.011309   0.362697   4.914241   0.556053
     6  C    0.000159  -0.002163   0.009081  -0.045888   0.556053   5.001286
     7  H   -0.000451  -0.061171   0.409636  -0.052137  -0.008528   0.002643
     8  H    0.002643  -0.008528  -0.052137   0.409636  -0.061171  -0.000451
     9  H    0.000082   0.001829  -0.005129  -0.059687   0.402409  -0.037665
    10  H    0.000006   0.000022   0.002962  -0.011245  -0.057728   0.415273
    11  H   -0.000002   0.000055  -0.001440   0.011297  -0.026538   0.395190
    12  H    0.395190  -0.026538   0.011297  -0.001440   0.000055  -0.000002
    13  H    0.415273  -0.057729  -0.011245   0.002962   0.000022   0.000006
    14  H   -0.037665   0.402409  -0.059687  -0.005129   0.001829   0.000082
              7          8          9         10         11         12
     1  C   -0.000451   0.002643   0.000082   0.000006  -0.000002   0.395190
     2  C   -0.061171  -0.008528   0.001829   0.000022   0.000055  -0.026538
     3  C    0.409636  -0.052137  -0.005129   0.002962  -0.001440   0.011297
     4  C   -0.052137   0.409636  -0.059687  -0.011245   0.011297  -0.001440
     5  C   -0.008528  -0.061171   0.402409  -0.057728  -0.026538   0.000055
     6  C    0.002643  -0.000451  -0.037665   0.415273   0.395190  -0.000002
     7  H    0.566308   0.006977   0.003390   0.000039  -0.000039   0.000025
     8  H    0.006977   0.566308   0.005793   0.003880   0.000025  -0.000039
     9  H    0.003390   0.005793   0.566270   0.007069  -0.008874  -0.000001
    10  H    0.000039   0.003880   0.007069   0.551162  -0.037537   0.000000
    11  H   -0.000039   0.000025  -0.008874  -0.037537   0.542559   0.000000
    12  H    0.000025  -0.000039  -0.000001   0.000000   0.000000   0.542560
    13  H    0.003880   0.000039   0.000019   0.000000   0.000000  -0.037537
    14  H    0.005793   0.003390   0.000027   0.000019  -0.000001  -0.008874
             13         14
     1  C    0.415273  -0.037665
     2  C   -0.057729   0.402409
     3  C   -0.011245  -0.059687
     4  C    0.002962  -0.005129
     5  C    0.000022   0.001829
     6  C    0.000006   0.000082
     7  H    0.003880   0.005793
     8  H    0.000039   0.003390
     9  H    0.000019   0.000027
    10  H    0.000000   0.000019
    11  H    0.000000  -0.000001
    12  H   -0.037537  -0.008874
    13  H    0.551162   0.007069
    14  H    0.007069   0.566270
 Mulliken atomic charges:
              1
     1  C   -0.293604
     2  C   -0.082618
     3  C   -0.123262
     4  C   -0.123262
     5  C   -0.082618
     6  C   -0.293605
     7  H    0.123636
     8  H    0.123636
     9  H    0.124468
    10  H    0.126078
    11  H    0.125303
    12  H    0.125303
    13  H    0.126078
    14  H    0.124468
 Sum of Mulliken atomic charges =   0.00000
 Mulliken charges with hydrogens summed into heavy atoms:
              1
     1  C   -0.042224
     2  C    0.041850
     3  C    0.000374
     4  C    0.000374
     5  C    0.041850
     6  C   -0.042224
 Sum of Mulliken charges with hydrogens summed into heavy atoms =   0.00000
 Electronic spatial extent (au):  <R**2>=            924.1027
 Charge=              0.0000 electrons
 Dipole moment (field-independent basis, Debye):
    X=              0.0000    Y=              0.0000    Z=              0.0000  Tot=              0.0000
 Quadrupole moment (field-independent basis, Debye-Ang):
   XX=            -34.6540   YY=            -33.6840   ZZ=            -42.5491
   XY=              0.0789   XZ=              0.0000   YZ=              0.0000
 Traceless Quadrupole moment (field-independent basis, Debye-Ang):
   XX=              2.3083   YY=              3.2784   ZZ=             -5.5867
   XY=              0.0789   XZ=              0.0000   YZ=              0.0000
 Octapole moment (field-independent basis, Debye-Ang**2):
  XXX=              0.0000  YYY=              0.0000  ZZZ=              0.0000  XYY=              0.0000
  XXY=              0.0000  XXZ=              0.0000  XZZ=              0.0000  YZZ=              0.0000
  YYZ=              0.0000  XYZ=              0.0000
 Hexadecapole moment (field-independent basis, Debye-Ang**3):
 XXXX=          -1069.5427 YYYY=           -101.5038 ZZZZ=            -51.5288 XXXY=             12.0870
 XXXZ=              0.0000 YYYX=             -1.9411 YYYZ=              0.0000 ZZZX=              0.0000
 ZZZY=              0.0000 XXYY=           -194.6907 XXZZ=           -230.5928 YYZZ=            -28.8685
 XXYZ=              0.0000 YYXZ=              0.0000 ZZXY=             -0.0561
 N-N= 1.931647414213D+02 E-N=-9.269992742938D+02  KE= 2.322551014838D+02
 Fitting Gamma and (X+Y) densities for TD-KS first derivatives, JSym2E=0.
 Calling FoFJK, ICntrl=      5527 FMM=F ISym2X=0 I1Cent= 4 IOpClX= 0 NMat=1 NMatS=1 NMatT=0.
 -------------------------------------------------------------------
 Center     Atomic                   Forces (Hartrees/Bohr)
 Number     Number              X              Y              Z
 -------------------------------------------------------------------
      1        6          -0.037777306    0.016954656    0.000000101
      2        6           0.046520825   -0.009496817   -0.000000005
      3        6          -0.053798017    0.011356822   -0.000000012
      4        6           0.053798042   -0.011356980   -0.000000012
      5        6          -0.046520792    0.009497076   -0.000000005
      6        6           0.037776506   -0.016955250    0.000000101
      7        1          -0.000250877    0.000208179    0.000000014
      8        1           0.000250906   -0.000208187    0.000000014
      9        1          -0.000679060    0.000276634   -0.000000061
     10        1           0.000623175   -0.000380044    0.000000016
     11        1           0.000557211   -0.000330806   -0.000000053
     12        1          -0.000556447    0.000331329   -0.000000053
     13        1          -0.000623218    0.000380014    0.000000016
     14        1           0.000679053   -0.000276627   -0.000000061
 -------------------------------------------------------------------
 Cartesian Forces:  Max     0.053798042 RMS     0.018249261

 GradGradGradGradGradGradGradGradGradGradGradGradGradGradGradGradGradGrad
 Berny optimization.
 Internal  Forces:  Max     0.049708069 RMS     0.011210140
 Search for a local minimum.
 Step number   1 out of a maximum of   61
 All quantities printed in internal units (Hartrees-Bohrs-Radians)
 Mixed Optimization -- RFO/linear search
 Second derivative matrix not updated -- first step.
     Eigenvalues ---    0.01483   0.01483   0.02060   0.02060   0.02134
     Eigenvalues ---    0.02134   0.02617   0.02756   0.02756   0.02756
     Eigenvalues ---    0.02756   0.16000   0.16000   0.16000   0.16000
     Eigenvalues ---    0.16000   0.16000   0.16000   0.16000   0.22000
     Eigenvalues ---    0.22000   0.22000   0.22000   0.33979   0.33979
     Eigenvalues ---    0.34049   0.34049   0.34432   0.34432   0.34717
     Eigenvalues ---    0.34717   0.38801   0.38801   0.52938   0.55110
     Eigenvalues ---    0.551101000.000001000.000001000.000001000.00000
     Eigenvalues --- 1000.000001000.000001000.000001000.000001000.00000
     Eigenvalues --- 1000.000001000.000001000.000001000.000001000.00000
     Eigenvalues --- 1000.00000
 RFO step:  Lambda=-1.18318347D-02 EMin= 1.48292601D-02
 Linear search not attempted -- first point.
 Iteration  1 RMS(Cart)=  0.04175024 RMS(Int)=  0.00018233
 Iteration  2 RMS(Cart)=  0.00025711 RMS(Int)=  0.00000002
 Iteration  3 RMS(Cart)=  0.00000005 RMS(Int)=  0.00000000
 Variable       Old X    -DE/DX   Delta X   Delta X   Delta X     New X
                                 (Linear)    (Quad)   (Total)
    R1        2.55034   0.04277   0.00000   0.07597   0.07597   2.62632
    R2        2.06138   0.00029   0.00000   0.00080   0.00080   2.06218
    R3        2.06608   0.00044   0.00000   0.00124   0.00124   2.06732
    R4        2.73216  -0.01108   0.00000  -0.02770  -0.02770   2.70446
    R5        2.07247   0.00031   0.00000   0.00089   0.00089   2.07336
    R6        2.57012   0.04971   0.00000   0.09185   0.09185   2.66197
    R7        2.07366   0.00022   0.00000   0.00063   0.00063   2.07429
    R8        2.73216  -0.01108   0.00000  -0.02770  -0.02770   2.70446
    R9        2.07366   0.00022   0.00000   0.00063   0.00063   2.07429
   R10        2.55034   0.04277   0.00000   0.07597   0.07597   2.62632
   R11        2.07247   0.00031   0.00000   0.00089   0.00089   2.07336
   R12        2.06608   0.00044   0.00000   0.00124   0.00124   2.06732
   R13        2.06137   0.00029   0.00000   0.00080   0.00080   2.06218
    A1        2.12297   0.00040   0.00000   0.00233   0.00233   2.12530
    A2        2.11889   0.00040   0.00000   0.00233   0.00233   2.12122
    A3        2.04132  -0.00080   0.00000  -0.00466  -0.00466   2.03666
    A4        2.17448   0.00212   0.00000   0.00914   0.00914   2.18362
    A5        2.07702  -0.00037   0.00000  -0.00058  -0.00058   2.07643
    A6        2.03169  -0.00174   0.00000  -0.00855  -0.00855   2.02313
    A7        2.17049   0.00233   0.00000   0.01006   0.01006   2.18055
    A8        2.03970  -0.00141   0.00000  -0.00647  -0.00647   2.03323
    A9        2.07299  -0.00092   0.00000  -0.00359  -0.00359   2.06940
   A10        2.17049   0.00233   0.00000   0.01006   0.01006   2.18055
   A11        2.07299  -0.00092   0.00000  -0.00359  -0.00359   2.06940
   A12        2.03970  -0.00141   0.00000  -0.00647  -0.00647   2.03323
   A13        2.17448   0.00212   0.00000   0.00914   0.00914   2.18362
   A14        2.03169  -0.00174   0.00000  -0.00855  -0.00855   2.02314
   A15        2.07702  -0.00037   0.00000  -0.00058  -0.00058   2.07643
   A16        2.11889   0.00040   0.00000   0.00233   0.00233   2.12122
   A17        2.12297   0.00040   0.00000   0.00233   0.00233   2.12530
   A18        2.04132  -0.00080   0.00000  -0.00466  -0.00466   2.03666
    D1       -3.14159   0.00000   0.00000   0.00000   0.00000   3.14159
    D2        0.00000   0.00000   0.00000   0.00000   0.00000   0.00000
    D3        0.00000   0.00000   0.00000   0.00000   0.00000   0.00000
    D4        3.14159   0.00000   0.00000   0.00000   0.00000   3.14159
    D5        3.14159   0.00000   0.00000   0.00000   0.00000   3.14159
    D6        0.00000   0.00000   0.00000   0.00000   0.00000   0.00000
    D7        0.00000   0.00000   0.00000   0.00000   0.00000   0.00000
    D8        3.14159   0.00000   0.00000   0.00000   0.00000   3.14159
    D9        3.14159   0.00000   0.00000   0.00000   0.00000   3.14159
   D10        0.00000   0.00000   0.00000   0.00000   0.00000   0.00000
   D11        0.00000   0.00000   0.00000   0.00000   0.00000   0.00000
   D12        3.14159   0.00000   0.00000   0.00000   0.00000   3.14159
   D13        3.14159   0.00000   0.00000   0.00000   0.00000   3.14159
   D14        0.00000   0.00000   0.00000   0.00000   0.00000   0.00000
   D15        0.00000   0.00000   0.00000   0.00000   0.00000   0.00000
   D16        3.14159   0.00000   0.00000   0.00000   0.00000   3.14159
   D17        0.00000   0.00000   0.00000   0.00000   0.00000   0.00000
   D18       -3.14159   0.00000   0.00000   0.00000   0.00000   3.14159
   D19        3.14159   0.00000   0.00000   0.00000   0.00000   3.14159
   D20        0.00000   0.00000   0.00000   0.00000   0.00000   0.00000
         Item               Value     Threshold  Converged?
 Maximum Force            0.049708     0.000450     NO 
 RMS     Force            0.011210     0.000300     NO 
 Maximum Displacement     0.129574     0.001800     NO 
 RMS     Displacement     0.041840     0.001200     NO 
 Predicted change in Energy=-6.047323D-03
 GradGradGradGradGradGradGradGradGradGradGradGradGradGradGradGradGradGrad

                          Input orientation:                          
 ---------------------------------------------------------------------
 Center     Atomic      Atomic             Coordinates (Angstroms)
 Number     Number       Type             X           Y           Z
 ---------------------------------------------------------------------
      1          6           0       -3.137506    0.178969    0.000001
      2          6           0       -1.878897   -0.410446   -0.000001
      3          6           0       -0.636928    0.300662    0.000001
      4          6           0        0.636928   -0.300663    0.000001
      5          6           0        1.878897    0.410446   -0.000001
      6          6           0        3.137506   -0.178969    0.000001
      7          1           0       -0.700083    1.396509    0.000002
      8          1           0        0.700084   -1.396509    0.000002
      9          1           0        1.804714    1.505113   -0.000004
     10          1           0        3.260265   -1.266038    0.000005
     11          1           0        4.051306    0.417530   -0.000002
     12          1           0       -4.051306   -0.417531   -0.000002
     13          1           0       -3.260266    1.266037    0.000005
     14          1           0       -1.804714   -1.505112   -0.000004
 ---------------------------------------------------------------------
                    Distance matrix (angstroms):
                    1          2          3          4          5
     1  C    0.000000
     2  C    1.389787   0.000000
     3  C    2.503537   1.431140   0.000000
     4  C    3.804786   2.518219   1.408652   0.000000
     5  C    5.021740   3.846411   2.518219   1.431140   0.000000
     6  C    6.285212   5.021740   3.804786   2.503537   1.389787
     7  H    2.724598   2.157472   1.097665   2.160553   2.761061
     8  H    4.148400   2.761062   2.160553   1.097665   2.157472
     9  H    5.117049   4.151909   2.722557   2.150476   1.097177
    10  H    6.558927   5.209896   4.200317   2.795326   2.172275
    11  H    7.192770   5.987725   4.689691   3.489094   2.172421
    12  H    1.091258   2.172421   3.489094   4.689691   5.987725
    13  H    1.093978   2.172275   2.795327   4.200318   5.209897
    14  H    2.147665   1.097177   2.150475   2.722557   4.151909
                    6          7          8          9         10
     6  C    0.000000
     7  H    4.148399   0.000000
     8  H    2.724597   3.124326   0.000000
     9  H    2.147665   2.507150   3.104773   0.000000
    10  H    1.093978   4.772160   2.563503   3.130160   0.000000
    11  H    1.091258   4.851196   3.810699   2.496000   1.860147
    12  H    7.192769   3.810700   4.851196   6.163564   7.360641
    13  H    6.558927   2.563505   4.772161   5.070619   6.994908
    14  H    5.117049   3.104772   2.507151   4.699938   5.070618
                   11         12         13         14
    11  H    0.000000
    12  H    8.145530   0.000000
    13  H    7.360643   1.860147   0.000000
    14  H    6.163564   2.495999   3.130160   0.000000
 Symmetry turned off by external request.
 Stoichiometry    C6H8
 Framework group  C1[X(C6H8)]
 Deg. of freedom    36
 Full point group                 C1      NOp   1
 Rotational constants (GHZ):     26.5175489      1.2866708      1.2271287
 Standard basis: TZVP (5D, 7F)
 Integral buffers will be    131072 words long.
 Raffenetti 2 integral format.
 Two-electron integral symmetry is turned off.
   162 basis functions,   274 primitive gaussians,   168 cartesian basis functions
    22 alpha electrons       22 beta electrons
       nuclear repulsion energy       190.8534427117 Hartrees.
 NAtoms=   14 NActive=   14 NUniq=   14 SFac= 7.50D-01 NAtFMM=   80 NAOKFM=F Big=F
 Standard density basis: TZVPFit (5D, 7F)
   300 Density fitting functions
 One-electron integrals computed using PRISM.
 NBasis=   162 RedAO= T  NBF=   162
 NBsUse=   162 1.00D-06 NBFU=   162
 NBasis=      162 NBas6D=      168 NTT=       13203   NTT6D=    14196
 NDBShl=      124 NDBF=        300 NDBF6D=      336  NNucDB=        0
 IDenFi=        2 ISolve=        0 FullAP=F BlkAPC=T NucTyp=        0
 TolInv= 1.00D-05 TolIt=  1.00D-10 IR12=0.
 Symmetry not used in FoFDir.
 MinBra= 0 MaxBra= 3 Meth= 1.
 IRaf=       0 NMat=   1 IRICut=       1 DoRegI=T DoRafI=F ISym2E= 0 JSym2E=0.
  NDBF=   300  NBFD=   300
 NRank=   300 NBFDU=   300
 S*AI*S=  6.80688090097    
 Initial guess read from the read-write file.
 B after Tr=     0.000000    0.000000    0.000000
         Rot=    1.000000    0.000000    0.000000    0.000000 Ang=   0.00 deg.
 Harris functional with IExCor=  404 diagonalized for initial guess.
 ExpMin= 9.52D-02 ExpMax= 1.36D+04 ExpMxC= 4.63D+02 IAcc=2 IRadAn=         0 AccDes= 0.00D+00
 HarFok:  IExCor=  404 AccDes= 0.00D+00 IRadAn=         0 IDoV= 1
 ScaDFX=  1.000000  1.000000  1.000000  1.000000
 FoFCou: FMM=F IPFlag=           0 FMFlag=      100000 FMFlg1=           0
         NFxFlg=           0 DoJE=T BraDBF=F KetDBF=T FulRan=T
         Omega=  0.000000  0.000000  1.000000  0.000000  0.000000 ICntrl=     500 IOpCl=  0
         NMat0=    1 NMatS0=    1 NMatT0=    0 NMatD0=    1 NMtDS0=    0 NMtDT0=    0
         I1Cent=           4 NGrid=           0.
 Symmetry not used in FoFCou.
 Requested convergence on RMS density matrix=1.00D-08 within 128 cycles.
 Requested convergence on MAX density matrix=1.00D-06.
 Requested convergence on             energy=1.00D-06.
 No special actions if energy rises.
 FoFCou: FMM=F IPFlag=           0 FMFlag=      100000 FMFlg1=           0
         NFxFlg=           0 DoJE=T BraDBF=T KetDBF=F FulRan=T
         Omega=  0.000000  0.000000  1.000000  0.000000  0.000000 ICntrl=     500 IOpCl=  0
         NMat0=    1 NMatS0=    1 NMatT0=    0 NMatD0=    1 NMtDS0=    0 NMtDT0=    0
         I1Cent=           5 NGrid=           0.
 Symmetry not used in FoFCou.
 Initial convergence to 1.0D-05 achieved.  Increase integral accuracy.
 SCF Done:  E(RB-P86) =  -233.464980673     A.U. after   13 cycles
             Convg  =    0.5255D-08             -V/T =  2.0064
 ExpMin= 9.52D-02 ExpMax= 1.36D+04 ExpMxC= 4.63D+02 IAcc=3 IRadAn=         5 AccDes= 0.00D+00
 HarFok:  IExCor=  205 AccDes= 0.00D+00 IRadAn=         5 IDoV=-2
 ScaDFX=  1.000000  1.000000  1.000000  1.000000
 Range of M.O.s used for correlation:     7   162
 NBasis=   162 NAE=    22 NBE=    22 NFC=     6 NFV=     0
 NROrb=    156 NOA=    16 NOB=    16 NVA=   140 NVB=   140

 **** Warning!!: The largest alpha MO coefficient is  0.36678100D+02


 **** Warning!!: The smallest alpha delta epsilon is  0.94370602D-01

 Generating guess from densities on rwf.
 Convergence on wavefunction:    0.000001000000000
 Iteration     1 Dimension     3 NMult     3
 CISAX will form     3 AO SS matrices at one time.
 Iteration     2 Dimension     6 NMult     6
 Iteration     3 Dimension     9 NMult     9
 Iteration     4 Dimension    12 NMult    12
 Iteration     5 Dimension    15 NMult    15
 Iteration     6 Dimension    18 NMult    18
 Iteration     7 Dimension    21 NMult    21
 Iteration     8 Dimension    24 NMult    24
 Iteration     9 Dimension    27 NMult    27
 Iteration    10 Dimension    30 NMult    30
 Iteration    11 Dimension    33 NMult    33
 Iteration    12 Dimension    36 NMult    36
 Iteration    13 Dimension    39 NMult    39
 Iteration    14 Dimension    42 NMult    42
 Iteration    15 Dimension    45 NMult    45
 Iteration    16 Dimension    48 NMult    48
 Iteration    17 Dimension    51 NMult    51
 Iteration    18 Dimension    54 NMult    54
 Iteration    19 Dimension    57 NMult    57
 Iteration    20 Dimension    60 NMult    60
 Iteration    21 Dimension    63 NMult    63
 Iteration    22 Dimension    66 NMult    66
 Iteration    23 Dimension    69 NMult    69
 Iteration    24 Dimension    72 NMult    72
 Iteration    25 Dimension    75 NMult    75
 Iteration    26 Dimension    78 NMult    78
 Iteration    27 Dimension    81 NMult    81
 Iteration    28 Dimension    83 NMult    83
 Iteration    29 Dimension    85 NMult    85
 Iteration    30 Dimension    87 NMult    87
 Iteration    31 Dimension    89 NMult    89
 Iteration    32 Dimension    91 NMult    91
 Iteration    33 Dimension    93 NMult    93
 No map to state      3
 Iteration    34 Dimension    95 NMult    95
 Iteration    35 Dimension    97 NMult    97
 Iteration    36 Dimension    99 NMult    99
 Iteration    37 Dimension   101 NMult   101
 Iteration    38 Dimension   102 NMult   102
 Iteration    39 Dimension   104 NMult   104
 Iteration    40 Dimension   105 NMult   105
 Iteration    41 Dimension   106 NMult   106
 Iteration    42 Dimension   107 NMult   107
 Iteration    43 Dimension   108 NMult   108
 Iteration    44 Dimension   109 NMult   109
 Iteration    45 Dimension   110 NMult   110
 Iteration    46 Dimension   111 NMult   111
 Iteration    47 Dimension   112 NMult   112
 Iteration    48 Dimension   113 NMult   113
 Iteration    49 Dimension   114 NMult   114
 Iteration    50 Dimension   115 NMult   115
 Iteration    51 Dimension   116 NMult   116
 Iteration    52 Dimension   117 NMult   117
 Iteration    53 Dimension   118 NMult   118
 Iteration    54 Dimension   119 NMult   119
 Iteration    55 Dimension   120 NMult   120
 Iteration    56 Dimension   121 NMult   121
 Iteration    57 Dimension   122 NMult   122
 Iteration    58 Dimension   123 NMult   123
 Iteration    59 Dimension   124 NMult   124
 Iteration    60 Dimension   125 NMult   125
 Iteration    61 Dimension   126 NMult   126
 Iteration    62 Dimension   127 NMult   127
 Iteration    63 Dimension   128 NMult   128
 Iteration    64 Dimension   129 NMult   129
 Iteration    65 Dimension   130 NMult   130
 Iteration    66 Dimension   131 NMult   131
 Iteration    67 Dimension   132 NMult   132
 Iteration    68 Dimension   133 NMult   133
 Iteration    69 Dimension   134 NMult   134
 Iteration    70 Dimension   135 NMult   135
 Iteration    71 Dimension   136 NMult   136
 Iteration    72 Dimension   137 NMult   137
 ***********************************************************************
 Excited states from <AA,BB:AA,BB> singles matrix:
 ***********************************************************************
 
 Ground to excited state transition electric dipole moments (Au):
       state          X           Y           Z        Dip. S.      Osc.
         1         3.1617     -0.2330      0.0000     10.0505      1.0238
         2         0.0000      0.0000      0.0000      0.0000      0.0000
         3         0.0451      0.0131      0.0000      0.0022      0.0003
 Ground to excited state transition velocity dipole moments (Au):
       state          X           Y           Z        Dip. S.      Osc.
         1        -0.4663      0.0367      0.0000      0.2188      0.9547
         2         0.0000      0.0000      0.0000      0.0000      0.0000
         3        -0.0042      0.0000      0.0000      0.0000      0.0001
 Ground to excited state transition magnetic dipole moments (Au):
       state          X           Y           Z
         1         0.0000      0.0000      0.0000
         2         0.0000      0.0000      0.2035
         3         0.0000      0.0000      0.0000
 <0|del|b> * <b|rxdel|0> + <0|del|b> * <b|delr+rdel|0>
 Rotatory Strengths (R) in cgs (10**-40 erg-esu-cm/Gauss)
       state          XX          YY          ZZ    R(velocity)
         1         0.0003      0.0022      0.0013      0.0013
 Total R(velocity) tensor for State=          1
                 1             2             3 
      1   0.321893D-03  0.409428D-02  0.840338D-03
      2   0.173027D-03  0.220080D-02 -0.251599D-03
      3   0.143368D-05  0.182356D-04  0.125241D-02
         2         0.0000      0.0000      0.0000      0.0000
 Total R(velocity) tensor for State=          2
                 1             2             3 
      1   0.981011D-05 -0.386887D-05 -0.168966D-04
      2   0.000000D+00  0.795895D-05  0.195780D-05
      3   0.000000D+00  0.000000D+00  0.000000D+00
         3         0.0000      0.0000      0.0000      0.0000
 Total R(velocity) tensor for State=          3
                 1             2             3 
      1   0.000000D+00  0.149308D-04  0.477158D-05
      2   0.000000D+00  0.119231D-04  0.000000D+00
      3   0.000000D+00  0.000000D+00  0.109240D-04
 1/2[<0|r|b>*<b|rxdel|0> + (<0|rxdel|b>*<b|r|0>)*]
 Rotatory Strengths (R) in cgs (10**-40 erg-esu-cm/Gauss)
       state          XX          YY          ZZ     R(length)     R(au)
         1         0.0037      0.0002      0.0000      0.0013      0.0000
         2         0.0000      0.0000      0.0000      0.0000      0.0000
         3         0.0001      0.0000      0.0000      0.0000      0.0000
  1/2[<0|del|b>*<b|r|0> + (<0|r|b>*<b|del|0>)*] (Au)
       state          X           Y           Z        Dip. S.   Osc.(frdel)
         1        -1.4744     -0.0085      0.0000      1.4830      0.9886
         2         0.0000      0.0000      0.0000      0.0000      0.0000
         3        -0.0002      0.0000      0.0000      0.0002      0.0001
 Ground to excited state transition densities written to RWF  633

 Excitation energies and oscillator strengths:
 
 Excited state symmetry could not be determined.
 Excited State   1:      Singlet-?Sym    4.1578 eV  298.19 nm  f=1.0238  <S**2>=0.000
      22 -> 23         0.71732
      22 <- 23        -0.16956
 This state for optimization and/or second-order correction.
 Copying the excited state density for this state as the 1-particle RhoCI density.
 
 Excited state symmetry could not be determined.
 Excited State   2:      Singlet-?Sym    4.7129 eV  263.07 nm  f=0.0000  <S**2>=0.000
      21 -> 23         0.52836
      22 -> 24         0.46975
 
 Excited state symmetry could not be determined.
 Excited State   3:      Singlet-?Sym    5.8500 eV  211.94 nm  f=0.0003  <S**2>=0.000
      20 -> 23         0.46692
      22 -> 25        -0.52978
 SavETr:  write IOETrn=   770 NScale= 10 NData=  16 NLR=1 LETran=      64.
          IDoAtm=11111111111111
          Differentiating once with respect to electric field.
                with respect to dipole field.
          Differentiating once with respect to nuclear coordinates.
          There are     1 degrees of freedom in the 1st order CPHF.  IDoFFX=0.
 FoFCou: FMM=F IPFlag=           0 FMFlag=      100000 FMFlg1=           0
         NFxFlg=           0 DoJE=T BraDBF=T KetDBF=F FulRan=T
         Omega=  0.000000  0.000000  1.000000  0.000000  0.000000 ICntrl=     500 IOpCl=  0
         NMat0=    1 NMatS0=    1 NMatT0=    0 NMatD0=    1 NMtDS0=    0 NMtDT0=    0
         I1Cent=           5 NGrid=           0.
 Symmetry not used in FoFCou.
 LinEq1:  Iter=  0 NonCon=     1 RMS=1.50D-02 Max=6.39D-01
 AX will form     1 AO Fock derivatives at one time.
 LinEq1:  Iter=  1 NonCon=     1 RMS=5.98D-03 Max=2.24D-01
 LinEq1:  Iter=  2 NonCon=     1 RMS=4.64D-03 Max=8.49D-02
 LinEq1:  Iter=  3 NonCon=     1 RMS=2.35D-03 Max=4.93D-02
 LinEq1:  Iter=  4 NonCon=     1 RMS=9.49D-04 Max=1.80D-02
 LinEq1:  Iter=  5 NonCon=     1 RMS=4.19D-04 Max=8.07D-03
 LinEq1:  Iter=  6 NonCon=     1 RMS=1.61D-04 Max=2.90D-03
 LinEq1:  Iter=  7 NonCon=     1 RMS=2.65D-05 Max=3.67D-04
 LinEq1:  Iter=  8 NonCon=     1 RMS=2.44D-05 Max=1.24D-03
 LinEq1:  Iter=  9 NonCon=     1 RMS=1.70D-05 Max=1.81D-04
 LinEq1:  Iter= 10 NonCon=     1 RMS=2.94D-06 Max=3.71D-05
 LinEq1:  Iter= 11 NonCon=     1 RMS=5.27D-07 Max=1.12D-05
 LinEq1:  Iter= 12 NonCon=     1 RMS=6.31D-07 Max=1.67D-05
 LinEq1:  Iter= 13 NonCon=     1 RMS=1.37D-07 Max=1.70D-06
 LinEq1:  Iter= 14 NonCon=     1 RMS=2.48D-08 Max=2.61D-07
 LinEq1:  Iter= 15 NonCon=     1 RMS=5.42D-09 Max=9.93D-08
 LinEq1:  Iter= 16 NonCon=     1 RMS=3.90D-09 Max=7.63D-08
 LinEq1:  Iter= 17 NonCon=     1 RMS=8.42D-10 Max=1.08D-08
 LinEq1:  Iter= 18 NonCon=     0 RMS=9.05D-11 Max=8.81D-10
 Linear equations converged to 1.000D-10 1.000D-09 after    18 iterations.
 End of Minotr Frequency-dependent properties file   721 does not exist.
 End of Minotr Frequency-dependent properties file   722 does not exist.
 Fitting Gamma and (X+Y) densities for TD-KS first derivatives, JSym2E=0.
 Calling FoFJK, ICntrl=      5527 FMM=F ISym2X=0 I1Cent= 4 IOpClX= 0 NMat=1 NMatS=1 NMatT=0.
 -------------------------------------------------------------------
 Center     Atomic                   Forces (Hartrees/Bohr)
 Number     Number              X              Y              Z
 -------------------------------------------------------------------
      1        6          -0.003616453    0.001602552   -0.000000053
      2        6           0.011065617    0.000713280    0.000000119
      3        6          -0.016521601    0.002210171   -0.000000049
      4        6           0.016521553   -0.002210071   -0.000000049
      5        6          -0.011065617   -0.000713426    0.000000119
      6        6           0.003616491   -0.001602529   -0.000000053
      7        1           0.001863224   -0.000022100    0.000000032
      8        1          -0.001863235    0.000022119    0.000000032
      9        1           0.001686919    0.000056352   -0.000000043
     10        1          -0.000925898    0.000187732    0.000000016
     11        1          -0.000854133    0.000716361   -0.000000022
     12        1           0.000854144   -0.000716353   -0.000000022
     13        1           0.000925905   -0.000187706    0.000000016
     14        1          -0.001686914   -0.000056380   -0.000000043
 -------------------------------------------------------------------
 Cartesian Forces:  Max     0.016521601 RMS     0.004498186

 GradGradGradGradGradGradGradGradGradGradGradGradGradGradGradGradGradGrad
 Berny optimization.
 Using GEDIIS/GDIIS optimizer.
 Internal  Forces:  Max     0.007954147 RMS     0.002059640
 Search for a local minimum.
 Step number   2 out of a maximum of   61
 All quantities printed in internal units (Hartrees-Bohrs-Radians)
 Mixed Optimization -- RFO/linear search
 Update second derivatives using D2CorX and points    1    2
 DE= -6.35D-03 DEPred=-6.05D-03 R= 1.05D+00
 SS=  1.41D+00  RLast= 1.49D-01 DXNew= 5.0454D-01 4.4711D-01
 Trust test= 1.05D+00 RLast= 1.49D-01 DXMaxT set to 4.47D-01
 Use linear search instead of GDIIS.
     Eigenvalues ---    0.01483   0.01483   0.02061   0.02061   0.02137
     Eigenvalues ---    0.02137   0.02617   0.02756   0.02756   0.02756
     Eigenvalues ---    0.02756   0.15953   0.16000   0.16000   0.16000
     Eigenvalues ---    0.16000   0.16000   0.16000   0.16059   0.21993
     Eigenvalues ---    0.22000   0.22000   0.22257   0.33978   0.33979
     Eigenvalues ---    0.34049   0.34050   0.34406   0.34432   0.34609
     Eigenvalues ---    0.34717   0.34820   0.38801   0.50588   0.55110
     Eigenvalues ---    0.579861000.000001000.000001000.000001000.00000
     Eigenvalues --- 1000.000001000.000001000.000001000.000001000.00000
     Eigenvalues --- 1000.000001000.000001000.000001000.000001000.00000
     Eigenvalues --- 1000.00000
 RFO step:  Lambda=-6.44432545D-04 EMin= 1.48292601D-02
 Quartic linear search produced a step of  0.14433.
 Iteration  1 RMS(Cart)=  0.00699831 RMS(Int)=  0.00003904
 Iteration  2 RMS(Cart)=  0.00004789 RMS(Int)=  0.00000001
 Iteration  3 RMS(Cart)=  0.00000000 RMS(Int)=  0.00000001
 Variable       Old X    -DE/DX   Delta X   Delta X   Delta X     New X
                                 (Linear)    (Quad)   (Total)
    R1        2.62632   0.00196   0.01097  -0.00171   0.00926   2.63557
    R2        2.06218  -0.00033   0.00012  -0.00113  -0.00101   2.06117
    R3        2.06732  -0.00029   0.00018  -0.00104  -0.00086   2.06646
    R4        2.70446  -0.00723  -0.00400  -0.01933  -0.02333   2.68113
    R5        2.07336  -0.00006   0.00013  -0.00026  -0.00013   2.07323
    R6        2.66197   0.00795   0.01326   0.01024   0.02350   2.68546
    R7        2.07429  -0.00013   0.00009  -0.00047  -0.00038   2.07390
    R8        2.70446  -0.00723  -0.00400  -0.01933  -0.02333   2.68113
    R9        2.07429  -0.00013   0.00009  -0.00047  -0.00038   2.07390
   R10        2.62632   0.00196   0.01097  -0.00171   0.00926   2.63557
   R11        2.07336  -0.00006   0.00013  -0.00026  -0.00013   2.07323
   R12        2.06732  -0.00029   0.00018  -0.00104  -0.00086   2.06646
   R13        2.06218  -0.00033   0.00012  -0.00113  -0.00101   2.06117
    A1        2.12530  -0.00084   0.00034  -0.00608  -0.00575   2.11956
    A2        2.12122  -0.00051   0.00034  -0.00373  -0.00340   2.11782
    A3        2.03666   0.00135  -0.00067   0.00982   0.00914   2.04581
    A4        2.18362  -0.00071   0.00132  -0.00418  -0.00286   2.18076
    A5        2.07643  -0.00140  -0.00008  -0.01054  -0.01063   2.06581
    A6        2.02313   0.00211  -0.00123   0.01472   0.01349   2.03662
    A7        2.18055  -0.00145   0.00145  -0.00806  -0.00661   2.17394
    A8        2.03323   0.00265  -0.00093   0.01783   0.01690   2.05013
    A9        2.06940  -0.00121  -0.00052  -0.00977  -0.01029   2.05911
   A10        2.18055  -0.00145   0.00145  -0.00806  -0.00661   2.17394
   A11        2.06940  -0.00121  -0.00052  -0.00977  -0.01029   2.05911
   A12        2.03323   0.00265  -0.00093   0.01783   0.01690   2.05013
   A13        2.18362  -0.00071   0.00132  -0.00418  -0.00286   2.18076
   A14        2.02314   0.00211  -0.00123   0.01472   0.01349   2.03662
   A15        2.07643  -0.00140  -0.00008  -0.01054  -0.01063   2.06581
   A16        2.12122  -0.00051   0.00034  -0.00373  -0.00340   2.11782
   A17        2.12530  -0.00084   0.00034  -0.00608  -0.00575   2.11956
   A18        2.03666   0.00135  -0.00067   0.00982   0.00914   2.04581
    D1        3.14159   0.00000   0.00000   0.00000   0.00000   3.14159
    D2        0.00000   0.00000   0.00000   0.00000   0.00000   0.00000
    D3        0.00000   0.00000   0.00000   0.00000   0.00000   0.00000
    D4        3.14159   0.00000   0.00000   0.00000   0.00000  -3.14159
    D5        3.14159   0.00000   0.00000   0.00000   0.00000  -3.14159
    D6        0.00000   0.00000   0.00000   0.00000   0.00000   0.00000
    D7        0.00000   0.00000   0.00000   0.00000   0.00000   0.00000
    D8        3.14159   0.00000   0.00000   0.00000   0.00000   3.14159
    D9        3.14159   0.00000   0.00000   0.00000   0.00000   3.14158
   D10        0.00000   0.00000   0.00000   0.00000   0.00000  -0.00001
   D11        0.00000   0.00000   0.00000   0.00000   0.00000  -0.00001
   D12        3.14159   0.00000   0.00000   0.00000   0.00000   3.14159
   D13        3.14159   0.00000   0.00000   0.00000   0.00000  -3.14159
   D14        0.00000   0.00000   0.00000   0.00000   0.00000   0.00000
   D15        0.00000   0.00000   0.00000   0.00000   0.00000   0.00000
   D16        3.14159   0.00000   0.00000   0.00000   0.00000   3.14159
   D17        0.00000   0.00000   0.00000   0.00000   0.00000   0.00000
   D18        3.14159   0.00000   0.00000   0.00000   0.00000   3.14159
   D19        3.14159   0.00000   0.00000   0.00000   0.00000  -3.14159
   D20        0.00000   0.00000   0.00000   0.00000   0.00000   0.00000
         Item               Value     Threshold  Converged?
 Maximum Force            0.007954     0.000450     NO 
 RMS     Force            0.002060     0.000300     NO 
 Maximum Displacement     0.017691     0.001800     NO 
 RMS     Displacement     0.006997     0.001200     NO 
 Predicted change in Energy=-3.927891D-04
 GradGradGradGradGradGradGradGradGradGradGradGradGradGradGradGradGradGrad

                          Input orientation:                          
 ---------------------------------------------------------------------
 Center     Atomic      Atomic             Coordinates (Angstroms)
 Number     Number       Type             X           Y           Z
 ---------------------------------------------------------------------
      1          6           0       -3.134191    0.180165    0.000000
      2          6           0       -1.869535   -0.407877    0.000000
      3          6           0       -0.642242    0.303969    0.000005
      4          6           0        0.642242   -0.303969    0.000005
      5          6           0        1.869535    0.407877    0.000000
      6          6           0        3.134190   -0.180165    0.000000
      7          1           0       -0.692992    1.400256    0.000006
      8          1           0        0.692992   -1.400256    0.000006
      9          1           0        1.804002    1.503026   -0.000007
     10          1           0        3.256172   -1.266865    0.000006
     11          1           0        4.042458    0.423761   -0.000008
     12          1           0       -4.042457   -0.423762   -0.000008
     13          1           0       -3.256173    1.266865    0.000006
     14          1           0       -1.804002   -1.503025   -0.000007
 ---------------------------------------------------------------------
                    Distance matrix (angstroms):
                    1          2          3          4          5
     1  C    0.000000
     2  C    1.394685   0.000000
     3  C    2.495022   1.418793   0.000000
     4  C    3.807338   2.513925   1.421086   0.000000
     5  C    5.008904   3.827022   2.513925   1.418793   0.000000
     6  C    6.278729   5.008904   3.807338   2.495022   1.394685
     7  H    2.729116   2.157220   1.097461   2.165002   2.747974
     8  H    4.140659   2.747974   2.165002   1.097461   2.157220
     9  H    5.112309   4.140824   2.724306   2.148235   1.097107
    10  H    6.552147   5.197185   4.202993   2.785642   2.174287
    11  H    7.180781   5.970199   4.686231   3.477220   2.172981
    12  H    1.090723   2.172980   3.477220   4.686230   5.970199
    13  H    1.093525   2.174287   2.785643   4.202993   5.197186
    14  H    2.145351   1.097107   2.148235   2.724306   4.140824
                    6          7          8          9         10
     6  C    0.000000
     7  H    4.140659   0.000000
     8  H    2.729115   3.124711   0.000000
     9  H    2.145351   2.499108   3.108599   0.000000
    10  H    1.093525   4.765442   2.566649   3.127474   0.000000
    11  H    1.090723   4.835083   3.813916   2.485054   1.864527
    12  H    7.180781   3.813917   4.835083   6.155778   7.347164
    13  H    6.552148   2.566649   4.765442   5.065683   6.987877
    14  H    5.112309   3.108599   2.499108   4.696172   5.065682
                   11         12         13         14
    11  H    0.000000
    12  H    8.129216   0.000000
    13  H    7.347165   1.864527   0.000000
    14  H    6.155777   2.485054   3.127474   0.000000
 Symmetry turned off by external request.
 Stoichiometry    C6H8
 Framework group  C1[X(C6H8)]
 Deg. of freedom    36
 Full point group                 C1      NOp   1
 Rotational constants (GHZ):     26.4770389      1.2912712      1.2312250
 Standard basis: TZVP (5D, 7F)
 Integral buffers will be    131072 words long.
 Raffenetti 2 integral format.
 Two-electron integral symmetry is turned off.
   162 basis functions,   274 primitive gaussians,   168 cartesian basis functions
    22 alpha electrons       22 beta electrons
       nuclear repulsion energy       191.0324870042 Hartrees.
 NAtoms=   14 NActive=   14 NUniq=   14 SFac= 7.50D-01 NAtFMM=   80 NAOKFM=F Big=F
 Standard density basis: TZVPFit (5D, 7F)
   300 Density fitting functions
 One-electron integrals computed using PRISM.
 NBasis=   162 RedAO= T  NBF=   162
 NBsUse=   162 1.00D-06 NBFU=   162
 NBasis=      162 NBas6D=      168 NTT=       13203   NTT6D=    14196
 NDBShl=      124 NDBF=        300 NDBF6D=      336  NNucDB=        0
 IDenFi=        2 ISolve=        0 FullAP=F BlkAPC=T NucTyp=        0
 TolInv= 1.00D-05 TolIt=  1.00D-10 IR12=0.
 Symmetry not used in FoFDir.
 MinBra= 0 MaxBra= 3 Meth= 1.
 IRaf=       0 NMat=   1 IRICut=       1 DoRegI=T DoRafI=F ISym2E= 0 JSym2E=0.
  NDBF=   300  NBFD=   300
 NRank=   300 NBFDU=   300
 S*AI*S=  6.80303745805    
 Initial guess read from the read-write file.
 B after Tr=     0.000000    0.000000    0.000000
         Rot=    1.000000    0.000000    0.000000    0.000000 Ang=   0.00 deg.
 Requested convergence on RMS density matrix=1.00D-08 within 128 cycles.
 Requested convergence on MAX density matrix=1.00D-06.
 Requested convergence on             energy=1.00D-06.
 No special actions if energy rises.
 FoFCou: FMM=F IPFlag=           0 FMFlag=      100000 FMFlg1=           0
         NFxFlg=           0 DoJE=T BraDBF=T KetDBF=F FulRan=T
         Omega=  0.000000  0.000000  1.000000  0.000000  0.000000 ICntrl=     500 IOpCl=  0
         NMat0=    1 NMatS0=    1 NMatT0=    0 NMatD0=    1 NMtDS0=    0 NMtDT0=    0
         I1Cent=           5 NGrid=           0.
 Symmetry not used in FoFCou.
 SCF Done:  E(RB-P86) =  -233.463320355     A.U. after   10 cycles
             Convg  =    0.8069D-08             -V/T =  2.0064
 ExpMin= 9.52D-02 ExpMax= 1.36D+04 ExpMxC= 4.63D+02 IAcc=3 IRadAn=         5 AccDes= 0.00D+00
 HarFok:  IExCor=  205 AccDes= 0.00D+00 IRadAn=         5 IDoV=-2
 ScaDFX=  1.000000  1.000000  1.000000  1.000000
 Range of M.O.s used for correlation:     7   162
 NBasis=   162 NAE=    22 NBE=    22 NFC=     6 NFV=     0
 NROrb=    156 NOA=    16 NOB=    16 NVA=   140 NVB=   140

 **** Warning!!: The largest alpha MO coefficient is  0.36345660D+02


 **** Warning!!: The smallest alpha delta epsilon is  0.90755950D-01

 Generating guess from densities on rwf.
 Convergence on wavefunction:    0.000001000000000
 Iteration     1 Dimension     3 NMult     3
 CISAX will form     3 AO SS matrices at one time.
 Iteration     2 Dimension     6 NMult     6
 Iteration     3 Dimension     9 NMult     9
 Iteration     4 Dimension    12 NMult    12
 Iteration     5 Dimension    15 NMult    15
 Iteration     6 Dimension    18 NMult    18
 Iteration     7 Dimension    21 NMult    21
 Iteration     8 Dimension    24 NMult    24
 Iteration     9 Dimension    27 NMult    27
 Iteration    10 Dimension    30 NMult    30
 Iteration    11 Dimension    33 NMult    33
 Iteration    12 Dimension    36 NMult    36
 Iteration    13 Dimension    39 NMult    39
 Iteration    14 Dimension    42 NMult    42
 Iteration    15 Dimension    45 NMult    45
 Iteration    16 Dimension    48 NMult    48
 Iteration    17 Dimension    51 NMult    51
 Iteration    18 Dimension    54 NMult    54
 Iteration    19 Dimension    57 NMult    57
 Iteration    20 Dimension    60 NMult    60
 Iteration    21 Dimension    63 NMult    63
 Iteration    22 Dimension    66 NMult    66
 Iteration    23 Dimension    69 NMult    69
 Iteration    24 Dimension    72 NMult    72
 Iteration    25 Dimension    75 NMult    75
 Iteration    26 Dimension    77 NMult    77
 Iteration    27 Dimension    79 NMult    79
 ***********************************************************************
 Excited states from <AA,BB:AA,BB> singles matrix:
 ***********************************************************************
 
 Ground to excited state transition electric dipole moments (Au):
       state          X           Y           Z        Dip. S.      Osc.
         1         3.1953     -0.2371      0.0000     10.2660      1.0310
         2         0.0000      0.0000      0.0000      0.0000      0.0000
         3         0.0374      0.0113      0.0000      0.0015      0.0002
 Ground to excited state transition velocity dipole moments (Au):
       state          X           Y           Z        Dip. S.      Osc.
         1        -0.4644      0.0365      0.0000      0.2170      0.9602
         2         0.0000      0.0000      0.0000      0.0000      0.0000
         3        -0.0023      0.0004      0.0000      0.0000      0.0000
 Ground to excited state transition magnetic dipole moments (Au):
       state          X           Y           Z
         1         0.0000      0.0000      0.0000
         2         0.0000      0.0000      0.2084
         3         0.0000      0.0000      0.0000
 <0|del|b> * <b|rxdel|0> + <0|del|b> * <b|delr+rdel|0>
 Rotatory Strengths (R) in cgs (10**-40 erg-esu-cm/Gauss)
       state          XX          YY          ZZ    R(velocity)
         1        -0.0003      0.0037      0.0021      0.0018
 Total R(velocity) tensor for State=          1
                 1             2             3 
      1  -0.259750D-03 -0.330179D-02  0.596496D-03
      2   0.287960D-03  0.366039D-02 -0.836838D-04
      3  -0.125171D-05 -0.159110D-04  0.211416D-02
         2         0.0000      0.0000      0.0000      0.0000
 Total R(velocity) tensor for State=          2
                 1             2             3 
      1   0.205876D-05  0.000000D+00 -0.217752D-04
      2   0.000000D+00  0.165687D-05  0.200552D-05
      3   0.000000D+00  0.000000D+00  0.000000D+00
         3         0.0000      0.0000      0.0000      0.0000
 Total R(velocity) tensor for State=          3
                 1             2             3 
      1  -0.159852D-05 -0.903809D-05  0.000000D+00
      2   0.137603D-05  0.778012D-05  0.000000D+00
      3   0.000000D+00  0.000000D+00  0.945627D-05
 1/2[<0|r|b>*<b|rxdel|0> + (<0|rxdel|b>*<b|r|0>)*]
 Rotatory Strengths (R) in cgs (10**-40 erg-esu-cm/Gauss)
       state          XX          YY          ZZ     R(length)     R(au)
         1         0.0062     -0.0005      0.0000      0.0019      0.0000
         2         0.0000      0.0000      0.0000      0.0000      0.0000
         3         0.0001      0.0000      0.0000      0.0000      0.0000
  1/2[<0|del|b>*<b|r|0> + (<0|r|b>*<b|del|0>)*] (Au)
       state          X           Y           Z        Dip. S.   Osc.(frdel)
         1        -1.4838     -0.0087      0.0000      1.4924      0.9949
         2         0.0000      0.0000      0.0000      0.0000      0.0000
         3        -0.0001      0.0000      0.0000      0.0001      0.0001
 Ground to excited state transition densities written to RWF  633

 Excitation energies and oscillator strengths:
 
 Excited state symmetry could not be determined.
 Excited State   1:      Singlet-?Sym    4.0992 eV  302.46 nm  f=1.0310  <S**2>=0.000
      22 -> 23         0.72021
      22 <- 23        -0.17867
 This state for optimization and/or second-order correction.
 Copying the excited state density for this state as the 1-particle RhoCI density.
 
 Excited state symmetry could not be determined.
 Excited State   2:      Singlet-?Sym    4.6802 eV  264.91 nm  f=0.0000  <S**2>=0.000
      21 -> 23         0.52834
      22 -> 24         0.46979
 
 Excited state symmetry could not be determined.
 Excited State   3:      Singlet-?Sym    5.8015 eV  213.71 nm  f=0.0002  <S**2>=0.000
      20 -> 23         0.45837
      22 -> 25        -0.53742
 SavETr:  write IOETrn=   770 NScale= 10 NData=  16 NLR=1 LETran=      64.
          IDoAtm=11111111111111
          Differentiating once with respect to electric field.
                with respect to dipole field.
          Differentiating once with respect to nuclear coordinates.
          There are     1 degrees of freedom in the 1st order CPHF.  IDoFFX=0.
 FoFCou: FMM=F IPFlag=           0 FMFlag=      100000 FMFlg1=           0
         NFxFlg=           0 DoJE=T BraDBF=T KetDBF=F FulRan=T
         Omega=  0.000000  0.000000  1.000000  0.000000  0.000000 ICntrl=     500 IOpCl=  0
         NMat0=    1 NMatS0=    1 NMatT0=    0 NMatD0=    1 NMtDS0=    0 NMtDT0=    0
         I1Cent=           5 NGrid=           0.
 Symmetry not used in FoFCou.
 LinEq1:  Iter=  0 NonCon=     1 RMS=1.47D-02 Max=6.36D-01
 AX will form     1 AO Fock derivatives at one time.
 LinEq1:  Iter=  1 NonCon=     1 RMS=6.50D-03 Max=2.51D-01
 LinEq1:  Iter=  2 NonCon=     1 RMS=4.59D-03 Max=7.62D-02
 LinEq1:  Iter=  3 NonCon=     1 RMS=2.25D-03 Max=4.77D-02
 LinEq1:  Iter=  4 NonCon=     1 RMS=9.08D-04 Max=1.71D-02
 LinEq1:  Iter=  5 NonCon=     1 RMS=4.06D-04 Max=7.85D-03
 LinEq1:  Iter=  6 NonCon=     1 RMS=1.60D-04 Max=2.93D-03
 LinEq1:  Iter=  7 NonCon=     1 RMS=3.44D-05 Max=1.21D-03
 LinEq1:  Iter=  8 NonCon=     1 RMS=6.48D-05 Max=2.63D-03
 LinEq1:  Iter=  9 NonCon=     1 RMS=1.84D-05 Max=2.03D-04
 LinEq1:  Iter= 10 NonCon=     1 RMS=3.07D-06 Max=3.73D-05
 LinEq1:  Iter= 11 NonCon=     1 RMS=4.44D-07 Max=6.19D-06
 LinEq1:  Iter= 12 NonCon=     1 RMS=2.95D-07 Max=9.47D-06
 LinEq1:  Iter= 13 NonCon=     1 RMS=1.37D-07 Max=1.68D-06
 LinEq1:  Iter= 14 NonCon=     1 RMS=2.47D-08 Max=2.56D-07
 LinEq1:  Iter= 15 NonCon=     1 RMS=4.08D-09 Max=4.25D-08
 LinEq1:  Iter= 16 NonCon=     1 RMS=9.34D-10 Max=2.00D-08
 LinEq1:  Iter= 17 NonCon=     1 RMS=6.95D-10 Max=1.20D-08
 LinEq1:  Iter= 18 NonCon=     1 RMS=1.09D-10 Max=1.11D-09
 LinEq1:  Iter= 19 NonCon=     0 RMS=3.27D-11 Max=6.23D-10
 Linear equations converged to 1.000D-10 1.000D-09 after    19 iterations.
 End of Minotr Frequency-dependent properties file   721 does not exist.
 End of Minotr Frequency-dependent properties file   722 does not exist.
 Fitting Gamma and (X+Y) densities for TD-KS first derivatives, JSym2E=0.
 Calling FoFJK, ICntrl=      5527 FMM=F ISym2X=0 I1Cent= 4 IOpClX= 0 NMat=1 NMatS=1 NMatT=0.
 -------------------------------------------------------------------
 Center     Atomic                   Forces (Hartrees/Bohr)
 Number     Number              X              Y              Z
 -------------------------------------------------------------------
      1        6           0.000044203   -0.000416315   -0.000000099
      2        6           0.000781635    0.000595993   -0.000000213
      3        6          -0.003802893    0.001000333    0.000000018
      4        6           0.003802923   -0.001000288    0.000000018
      5        6          -0.000781648   -0.000596061   -0.000000214
      6        6          -0.000044139    0.000416363   -0.000000099
      7        1           0.000854873   -0.000149930    0.000000062
      8        1          -0.000854889    0.000149921    0.000000062
      9        1           0.000661302   -0.000002781    0.000000116
     10        1          -0.000410200    0.000068706    0.000000027
     11        1          -0.000256290    0.000326997    0.000000090
     12        1           0.000256220   -0.000327036    0.000000090
     13        1           0.000410209   -0.000068702    0.000000027
     14        1          -0.000661305    0.000002801    0.000000116
 -------------------------------------------------------------------
 Cartesian Forces:  Max     0.003802923 RMS     0.000929425

 GradGradGradGradGradGradGradGradGradGradGradGradGradGradGradGradGradGrad
 Berny optimization.
 Using GEDIIS/GDIIS optimizer.
 Internal  Forces:  Max     0.002192766 RMS     0.000525337
 Search for a local minimum.
 Step number   3 out of a maximum of   61
 All quantities printed in internal units (Hartrees-Bohrs-Radians)
 Mixed Optimization -- En-DIIS/RFO-DIIS
 Update second derivatives using D2CorX and points    1    2    3
 DE= -4.94D-04 DEPred=-3.93D-04 R= 1.26D+00
 SS=  1.41D+00  RLast= 5.96D-02 DXNew= 7.5195D-01 1.7871D-01
 Trust test= 1.26D+00 RLast= 5.96D-02 DXMaxT set to 4.47D-01
 Use linear search instead of GDIIS.
     Eigenvalues ---    0.01483   0.01483   0.02053   0.02053   0.02129
     Eigenvalues ---    0.02129   0.02617   0.02756   0.02756   0.02756
     Eigenvalues ---    0.02756   0.12701   0.16000   0.16000   0.16000
     Eigenvalues ---    0.16000   0.16000   0.16001   0.16018   0.21829
     Eigenvalues ---    0.22000   0.22000   0.22577   0.33600   0.33979
     Eigenvalues ---    0.34047   0.34049   0.34299   0.34432   0.34645
     Eigenvalues ---    0.34717   0.34779   0.38801   0.49105   0.55110
     Eigenvalues ---    0.598871000.000001000.000001000.000001000.00000
     Eigenvalues --- 1000.000001000.000001000.000001000.000001000.00000
     Eigenvalues --- 1000.000001000.000001000.000001000.000001000.00000
     Eigenvalues --- 1000.00000
 RFO step:  Lambda=-3.54067175D-05 EMin= 1.48292601D-02
 Quartic linear search produced a step of  0.24283.
 Iteration  1 RMS(Cart)=  0.00399196 RMS(Int)=  0.00001373
 Iteration  2 RMS(Cart)=  0.00001393 RMS(Int)=  0.00000000
 Iteration  3 RMS(Cart)=  0.00000000 RMS(Int)=  0.00000000
 Variable       Old X    -DE/DX   Delta X   Delta X   Delta X     New X
                                 (Linear)    (Quad)   (Total)
[...]
    A5        2.05851   0.00000   0.00005  -0.00002   0.00003   2.05854
    A6        2.04007  -0.00002  -0.00020   0.00002  -0.00018   2.03988
    A7        2.17072  -0.00001  -0.00008  -0.00003  -0.00010   2.17062
    A8        2.06046   0.00000   0.00002   0.00001   0.00003   2.06049
    A9        2.05201   0.00001   0.00006   0.00001   0.00007   2.05208
   A10        2.17072  -0.00001  -0.00008  -0.00002  -0.00010   2.17062
   A11        2.05201   0.00001   0.00006   0.00001   0.00007   2.05208
   A12        2.06046   0.00000   0.00002   0.00001   0.00004   2.06049
   A13        2.18461   0.00002   0.00015   0.00000   0.00015   2.18476
   A14        2.04007  -0.00002  -0.00020   0.00002  -0.00018   2.03988
   A15        2.05851   0.00000   0.00005  -0.00002   0.00003   2.05854
   A16        2.11603   0.00001   0.00007   0.00002   0.00010   2.11612
   A17        2.11604   0.00001   0.00002   0.00001   0.00003   2.11607
   A18        2.05112  -0.00002  -0.00009  -0.00003  -0.00012   2.05099
    D1        3.14159   0.00000   0.00000  -0.00001   0.00000   3.14159
    D2       -0.00001   0.00000   0.00000   0.00000   0.00000   0.00000
    D3        0.00000   0.00000   0.00000  -0.00001   0.00000   0.00000
    D4        3.14159   0.00000   0.00000   0.00000   0.00000   3.14159
    D5        3.14158   0.00000   0.00000   0.00001   0.00001   3.14159
    D6       -0.00001   0.00000   0.00000   0.00000   0.00000  -0.00001
    D7        0.00000   0.00000   0.00000   0.00000   0.00000   0.00000
    D8        3.14158   0.00000   0.00000   0.00000  -0.00001   3.14158
    D9        3.14157   0.00000   0.00000  -0.00001  -0.00002   3.14156
   D10       -0.00001   0.00000   0.00000  -0.00001  -0.00001  -0.00002
   D11       -0.00001   0.00000   0.00000  -0.00001  -0.00001  -0.00002
   D12        3.14158   0.00000   0.00000   0.00000   0.00000   3.14158
   D13        3.14158   0.00000   0.00000   0.00001   0.00001   3.14159
   D14        0.00000   0.00000   0.00000   0.00000   0.00000   0.00000
   D15       -0.00001   0.00000   0.00000   0.00000   0.00000  -0.00001
   D16        3.14158   0.00000   0.00000   0.00000  -0.00001   3.14158
   D17        0.00000   0.00000   0.00000  -0.00001   0.00000   0.00000
   D18        3.14159   0.00000   0.00000  -0.00001   0.00000   3.14159
   D19        3.14159   0.00000   0.00000   0.00000   0.00000   3.14159
   D20       -0.00001   0.00000   0.00000   0.00000   0.00000   0.00000
         Item               Value     Threshold  Converged?
 Maximum Force            0.000025     0.000450     YES
 RMS     Force            0.000010     0.000300     YES
 Maximum Displacement     0.000572     0.001800     YES
 RMS     Displacement     0.000168     0.001200     YES
 Predicted change in Energy=-1.065356D-08
 Optimization completed.
    -- Stationary point found.
                           ----------------------------
                           !   Optimized Parameters   !
                           ! (Angstroms and Degrees)  !
 --------------------------                            --------------------------
 ! Name  Definition              Value          Derivative Info.                !
 --------------------------------------------------------------------------------
 ! R1    R(1,2)                  1.3938         -DE/DX =    0.0                 !
 ! R2    R(1,12)                 1.0906         -DE/DX =    0.0                 !
 ! R3    R(1,13)                 1.0933         -DE/DX =    0.0                 !
 ! R4    R(2,3)                  1.4168         -DE/DX =    0.0                 !
 ! R5    R(2,14)                 1.0971         -DE/DX =    0.0                 !
 ! R6    R(3,4)                  1.4261         -DE/DX =    0.0                 !
 ! R7    R(3,7)                  1.097          -DE/DX =    0.0                 !
 ! R8    R(4,5)                  1.4168         -DE/DX =    0.0                 !
 ! R9    R(4,8)                  1.097          -DE/DX =    0.0                 !
 ! R10   R(5,6)                  1.3938         -DE/DX =    0.0                 !
 ! R11   R(5,9)                  1.0971         -DE/DX =    0.0                 !
 ! R12   R(6,10)                 1.0933         -DE/DX =    0.0                 !
 ! R13   R(6,11)                 1.0906         -DE/DX =    0.0                 !
 ! A1    A(2,1,12)             121.2403         -DE/DX =    0.0                 !
 ! A2    A(2,1,13)             121.2395         -DE/DX =    0.0                 !
 ! A3    A(12,1,13)            117.5202         -DE/DX =    0.0                 !
 ! A4    A(1,2,3)              125.169          -DE/DX =    0.0                 !
 ! A5    A(1,2,14)             117.9438         -DE/DX =    0.0                 !
 ! A6    A(3,2,14)             116.8873         -DE/DX =    0.0                 !
 ! A7    A(2,3,4)              124.3729         -DE/DX =    0.0                 !
 ! A8    A(2,3,7)              118.0556         -DE/DX =    0.0                 !
 ! A9    A(4,3,7)              117.5715         -DE/DX =    0.0                 !
 ! A10   A(3,4,5)              124.3729         -DE/DX =    0.0                 !
 ! A11   A(3,4,8)              117.5715         -DE/DX =    0.0                 !
 ! A12   A(5,4,8)              118.0556         -DE/DX =    0.0                 !
 ! A13   A(4,5,6)              125.169          -DE/DX =    0.0                 !
 ! A14   A(4,5,9)              116.8872         -DE/DX =    0.0                 !
 ! A15   A(6,5,9)              117.9438         -DE/DX =    0.0                 !
 ! A16   A(5,6,10)             121.2395         -DE/DX =    0.0                 !
 ! A17   A(5,6,11)             121.2403         -DE/DX =    0.0                 !
 ! A18   A(10,6,11)            117.5202         -DE/DX =    0.0                 !
 ! D1    D(12,1,2,3)           180.0            -DE/DX =    0.0                 !
 ! D2    D(12,1,2,14)           -0.0003         -DE/DX =    0.0                 !
 ! D3    D(13,1,2,3)             0.0001         -DE/DX =    0.0                 !
 ! D4    D(13,1,2,14)          179.9998         -DE/DX =    0.0                 !
 ! D5    D(1,2,3,4)            179.9995         -DE/DX =    0.0                 !
 ! D6    D(1,2,3,7)             -0.0008         -DE/DX =    0.0                 !
 ! D7    D(14,2,3,4)            -0.0002         -DE/DX =    0.0                 !
 ! D8    D(14,2,3,7)           179.9995         -DE/DX =    0.0                 !
 ! D9    D(2,3,4,5)            179.9989         -DE/DX =    0.0                 !
 ! D10   D(2,3,4,8)             -0.0008         -DE/DX =    0.0                 !
 ! D11   D(7,3,4,5)             -0.0008         -DE/DX =    0.0                 !
 ! D12   D(7,3,4,8)            179.9995         -DE/DX =    0.0                 !
 ! D13   D(3,4,5,6)            179.9995         -DE/DX =    0.0                 !
 ! D14   D(3,4,5,9)             -0.0002         -DE/DX =    0.0                 !
 ! D15   D(8,4,5,6)             -0.0008         -DE/DX =    0.0                 !
 ! D16   D(8,4,5,9)            179.9995         -DE/DX =    0.0                 !
 ! D17   D(4,5,6,10)             0.0001         -DE/DX =    0.0                 !
 ! D18   D(4,5,6,11)           180.0            -DE/DX =    0.0                 !
 ! D19   D(9,5,6,10)           179.9998         -DE/DX =    0.0                 !
 ! D20   D(9,5,6,11)            -0.0003         -DE/DX =    0.0                 !
 --------------------------------------------------------------------------------
 GradGradGradGradGradGradGradGradGradGradGradGradGradGradGradGradGradGrad

                          Input orientation:                          
 ---------------------------------------------------------------------
 Center     Atomic      Atomic             Coordinates (Angstroms)
 Number     Number       Type             X           Y           Z
 ---------------------------------------------------------------------
      1          6           0       -3.135216    0.179552    0.000003
      2          6           0       -1.869202   -0.403445   -0.000007
      3          6           0       -0.643477    0.307226    0.000005
      4          6           0        0.643477   -0.307227    0.000005
      5          6           0        1.869201    0.403445   -0.000007
      6          6           0        3.135216   -0.179552    0.000002
      7          1           0       -0.682709    1.403546    0.000009
      8          1           0        0.682708   -1.403547    0.000009
      9          1           0        1.807617    1.498861   -0.000019
     10          1           0        3.259238   -1.265809    0.000019
     11          1           0        4.039010    0.430839   -0.000008
     12          1           0       -4.039010   -0.430839   -0.000008
     13          1           0       -3.259238    1.265809    0.000019
     14          1           0       -1.807617   -1.498861   -0.000019
 ---------------------------------------------------------------------
                    Distance matrix (angstroms):
                    1          2          3          4          5
     1  C    0.000000
     2  C    1.393800   0.000000
     3  C    2.495008   1.416847   0.000000
     4  C    3.809918   2.514520   1.426115   0.000000
     5  C    5.009423   3.824491   2.514520   1.416847   0.000000
     6  C    6.280706   5.009423   3.809918   2.495008   1.393800
     7  H    2.740976   2.161708   1.097022   2.164604   2.740885
     8  H    4.133128   2.740884   2.164604   1.097022   2.161709
     9  H    5.115874   4.139778   2.725409   2.148761   1.097146
    10  H    6.555769   5.200439   4.207805   2.785873   2.172236
    11  H    7.178625   5.966825   4.684118   3.474822   2.169982
    12  H    1.090606   2.169982   3.474822   4.684118   5.966825
    13  H    1.093314   2.172236   2.785873   4.207805   5.200439
    14  H    2.139997   1.097146   2.148761   2.725409   4.139778
                    6          7          8          9         10
     6  C    0.000000
     7  H    4.133128   0.000000
     8  H    2.740977   3.121559   0.000000
     9  H    2.139998   2.492149   3.112778   0.000000
    10  H    1.093314   4.760715   2.580209   3.122595   0.000000
    11  H    1.090606   4.820870   3.824883   2.473820   1.867260
    12  H    7.178626   3.824883   4.820870   6.156849   7.345856
    13  H    6.555769   2.580208   4.760714   5.072212   6.992826
    14  H    5.115875   3.112778   2.492149   4.696409   5.072213
                   11         12         13         14
    11  H    0.000000
    12  H    8.123848   0.000000
    13  H    7.345856   1.867260   0.000000
    14  H    6.156850   2.473820   3.122595   0.000000
 Symmetry turned off by external request.
 Stoichiometry    C6H8
 Framework group  C1[X(C6H8)]
 Deg. of freedom    36
 Full point group                 C1      NOp   1
 Rotational constants (GHZ):     26.5391610      1.2907914      1.2309227

 **********************************************************************

            Population analysis using the SCF density.

 **********************************************************************

 Alpha  occ. eigenvalues --   -9.91583  -9.91557  -9.91405  -9.91404  -9.90588
 Alpha  occ. eigenvalues --   -9.90588  -0.74684  -0.70915  -0.64604  -0.57384
 Alpha  occ. eigenvalues --   -0.50689  -0.50326  -0.43819  -0.41480  -0.38475
 Alpha  occ. eigenvalues --   -0.36706  -0.33670  -0.32631  -0.31671  -0.31015
 Alpha  occ. eigenvalues --   -0.26503  -0.19102
 Alpha virt. eigenvalues --   -0.10089  -0.01349   0.02216   0.03468   0.05225
 Alpha virt. eigenvalues --    0.05799   0.07211   0.08391   0.10393   0.11239
 Alpha virt. eigenvalues --    0.12587   0.14848   0.16037   0.17569   0.18033
 Alpha virt. eigenvalues --    0.18483   0.20558   0.20992   0.23483   0.23585
 Alpha virt. eigenvalues --    0.25362   0.25652   0.25703   0.27187   0.29987
 Alpha virt. eigenvalues --    0.31818   0.32184   0.32824   0.34091   0.35739
 Alpha virt. eigenvalues --    0.38508   0.41165   0.41851   0.42036   0.42779
 Alpha virt. eigenvalues --    0.44201   0.44870   0.46806   0.50035   0.51442
 Alpha virt. eigenvalues --    0.53725   0.55240   0.55242   0.60131   0.60559
 Alpha virt. eigenvalues --    0.62909   0.66540   0.67455   1.12434   1.12940
 Alpha virt. eigenvalues --    1.15139   1.15311   1.18008   1.19204   1.19739
 Alpha virt. eigenvalues --    1.20642   1.20761   1.20994   1.22277   1.22776
 Alpha virt. eigenvalues --    1.23088   1.23785   1.30253   1.32738   1.33888
 Alpha virt. eigenvalues --    1.35744   1.35762   1.36361   1.37787   1.38185
 Alpha virt. eigenvalues --    1.39741   1.39886   1.40660   1.42511   1.48174
 Alpha virt. eigenvalues --    1.53055   1.53555   1.62417   1.65543   1.66919
 Alpha virt. eigenvalues --    1.69065   1.70694   1.72893   1.73664   1.75790
 Alpha virt. eigenvalues --    1.76233   1.76896   1.77016   1.77217   1.80810
 Alpha virt. eigenvalues --    1.83325   1.85941   1.85986   1.92397   1.99097
 Alpha virt. eigenvalues --    1.99590   2.01038   2.01361   2.04710   2.06510
 Alpha virt. eigenvalues --    2.12726   2.17218   2.17352   2.18000   2.24710
 Alpha virt. eigenvalues --    2.30602   2.33188   2.38470   2.39401   2.44272
 Alpha virt. eigenvalues --    2.44276   2.44749   2.46885   2.51393   2.51752
 Alpha virt. eigenvalues --    2.53455   2.57294   2.62831   2.66396   2.67634
 Alpha virt. eigenvalues --    2.69459   2.91050   2.92927   2.93670   2.96108
 Alpha virt. eigenvalues --    2.99699   3.03012   3.06946   3.09621   3.15105
 Alpha virt. eigenvalues --    3.28372   3.29149   3.46084   3.46094  21.17250
 Alpha virt. eigenvalues --   21.33966  21.50810  21.69424  21.79175  21.81019
          Condensed to atoms (all electrons):
              1          2          3          4          5          6
     1  C    5.041867   0.536753  -0.041185   0.008052  -0.001951   0.000137
     2  C    0.536753   4.886662   0.391911  -0.013846   0.011807  -0.001951
     3  C   -0.041185   0.391911   4.999106   0.495071  -0.013846   0.008052
     4  C    0.008052  -0.013846   0.495071   4.999106   0.391911  -0.041185
     5  C   -0.001951   0.011807  -0.013846   0.391911   4.886662   0.536753
     6  C    0.000137  -0.001951   0.008052  -0.041185   0.536753   5.041868
     7  H   -0.002726  -0.057506   0.407308  -0.052589  -0.005178   0.001770
     8  H    0.001770  -0.005178  -0.052589   0.407308  -0.057506  -0.002726
     9  H    0.000033   0.002265  -0.006343  -0.060505   0.406129  -0.041413
    10  H    0.000002   0.000058   0.002025  -0.009246  -0.052095   0.409736
    11  H   -0.000001   0.000045  -0.001162   0.009847  -0.025527   0.393809
    12  H    0.393809  -0.025527   0.009847  -0.001162   0.000045  -0.000001
    13  H    0.409736  -0.052095  -0.009246   0.002025   0.000058   0.000002
    14  H   -0.041413   0.406129  -0.060505  -0.006343   0.002265   0.000033
              7          8          9         10         11         12
     1  C   -0.002726   0.001770   0.000033   0.000002  -0.000001   0.393809
     2  C   -0.057506  -0.005178   0.002265   0.000058   0.000045  -0.025527
     3  C    0.407308  -0.052589  -0.006343   0.002025  -0.001162   0.009847
     4  C   -0.052589   0.407308  -0.060505  -0.009246   0.009847  -0.001162
     5  C   -0.005178  -0.057506   0.406129  -0.052095  -0.025527   0.000045
     6  C    0.001770  -0.002726  -0.041413   0.409736   0.393809  -0.000001
     7  H    0.562405   0.006147   0.003263   0.000019  -0.000008   0.000191
     8  H    0.006147   0.562405   0.006086   0.003365   0.000191  -0.000008
     9  H    0.003263   0.006086   0.564315   0.006375  -0.006812   0.000000
    10  H    0.000019   0.003365   0.006375   0.545604  -0.035481   0.000000
    11  H   -0.000008   0.000191  -0.006812  -0.035481   0.535861   0.000000
    12  H    0.000191  -0.000008   0.000000   0.000000   0.000000   0.535861
    13  H    0.003365   0.000019   0.000017   0.000000   0.000000  -0.035481
    14  H    0.006086   0.003263   0.000038   0.000017   0.000000  -0.006812
             13         14
     1  C    0.409736  -0.041413
     2  C   -0.052095   0.406129
     3  C   -0.009246  -0.060505
     4  C    0.002025  -0.006343
     5  C    0.000058   0.002265
     6  C    0.000002   0.000033
     7  H    0.003365   0.006086
     8  H    0.000019   0.003263
     9  H    0.000017   0.000038
    10  H    0.000000   0.000017
    11  H    0.000000   0.000000
    12  H   -0.035481  -0.006812
    13  H    0.545604   0.006375
    14  H    0.006375   0.564316
 Mulliken atomic charges:
              1
     1  C   -0.304886
     2  C   -0.079530
     3  C   -0.128442
     4  C   -0.128443
     5  C   -0.079530
     6  C   -0.304887
     7  H    0.127452
     8  H    0.127452
     9  H    0.126550
    10  H    0.129619
    11  H    0.129239
    12  H    0.129238
    13  H    0.129619
    14  H    0.126550
 Sum of Mulliken atomic charges =   0.00000
 Mulliken charges with hydrogens summed into heavy atoms:
              1
     1  C   -0.046029
     2  C    0.047020
     3  C   -0.000991
     4  C   -0.000992
     5  C    0.047020
     6  C   -0.046029
 Sum of Mulliken charges with hydrogens summed into heavy atoms =   0.00000
 Electronic spatial extent (au):  <R**2>=            945.6708
 Charge=              0.0000 electrons
 Dipole moment (field-independent basis, Debye):
    X=              0.0000    Y=              0.0000    Z=              0.0000  Tot=              0.0000
 Quadrupole moment (field-independent basis, Debye-Ang):
   XX=            -34.5946   YY=            -33.6596   ZZ=            -42.9061
   XY=              0.0748   XZ=              0.0000   YZ=              0.0000
 Traceless Quadrupole moment (field-independent basis, Debye-Ang):
   XX=              2.4588   YY=              3.3938   ZZ=             -5.8527
   XY=              0.0748   XZ=              0.0000   YZ=              0.0000
 Octapole moment (field-independent basis, Debye-Ang**2):
  XXX=             -0.0001  YYY=              0.0000  ZZZ=              0.0000  XYY=              0.0000
  XXY=              0.0000  XXZ=              0.0000  XZZ=              0.0000  YZZ=              0.0000
  YYZ=              0.0000  XYZ=             -0.0003
 Hexadecapole moment (field-independent basis, Debye-Ang**3):
 XXXX=          -1096.9910 YYYY=           -100.9978 ZZZZ=            -52.5616 XXXY=             15.7279
 XXXZ=              0.0000 YYYX=              0.8791 YYYZ=              0.0000 ZZZX=              0.0000
 ZZZY=              0.0000 XXYY=           -198.8121 XXZZ=           -238.5845 YYZZ=            -29.0452
 XXYZ=              0.0000 YYXZ=              0.0000 ZZXY=              1.3340
 N-N= 1.910394548396D+02 E-N=-9.224777902007D+02  KE= 2.319893599935D+02
 1\1\GINC-CLODOMIRA\FOpt\RTD-BP86-FC\TZVP\C6H8\DIEGOA\08-Oct-2019\0\\# 
 bp86/TZVP TD(root=1) opt nosymm\\Title\\0,1\C,-3.1352158564,0.17955219
 33,0.0000025026\C,-1.8692016105,-0.4034452783,-0.000006577\C,-0.643477
 0371,0.3072262193,0.0000050773\C,0.6434769319,-0.3072266319,0.00000507
 51\C,1.8692014972,0.4034448976,-0.0000065779\C,3.135215962,-0.17955209
 46,0.000002499\H,-0.682708982,1.4035460762,0.0000090496\H,0.682708386,
 -1.4035465047,0.0000090415\H,1.8076168038,1.4988608296,-0.0000190357\H
 ,3.2592384516,-1.2658085873,0.0000189171\H,4.0390100952,0.4308394984,-
 0.0000079228\H,-4.0390102083,-0.4308391195,-0.0000079192\H,-3.25923807
 88,1.2658086992,0.0000189072\H,-1.8076173545,-1.4988611975,-0.00001903
 7\\Version=EM64L-G09RevA.01\HF=-233.4629797\RMSD=5.461e-09\RMSF=7.003e
 -06\Dipole=-0.000005,0.0000006,-0.0000019\PG=C01 [X(C6H8)]\\@


 THE GREAT THING ABOUT BEING IMPERFECT IS THE JOY IT BRINGS OTHERS.
   -- SIGN OUTSIDE LAKE AGASSIZ JR. HIGH SCHOOL, FARGO, N.D.
 Job cpu time:  0 days  1 hours 20 minutes 49.5 seconds.
 File lengths (MBytes):  RWF=     50 Int=      0 D2E=      0 Chk=      7 Scr=      1
 Normal termination of Gaussian 09 at Tue Oct  8 14:10:23 2019.
