 Entering Gaussian System, Link 0=g09
 Input=td.com
 Output=td.log
 Initial command:
 /home/diegoa/progs/g09/l1.exe /home/diegoa/g09scratch/Gau-26307.inp -scrdir=/home/diegoa/g09scratch/
 Default is to use a total of   4 processors:
                                4 via shared-memory
                                1 via Linda
 Entering Link 1 = /home/diegoa/progs/g09/l1.exe PID=     26312.
  
 Copyright (c) 1988,1990,1992,1993,1995,1998,2003,2009, Gaussian, Inc.
                  All Rights Reserved.
  
 This is part of the Gaussian(R) 09 program.  It is based on
 the Gaussian(R) 03 system (copyright 2003, Gaussian, Inc.),
 the Gaussian(R) 98 system (copyright 1998, Gaussian, Inc.),
 the Gaussian(R) 94 system (copyright 1995, Gaussian, Inc.),
 the Gaussian 92(TM) system (copyright 1992, Gaussian, Inc.),
 the Gaussian 90(TM) system (copyright 1990, Gaussian, Inc.),
 the Gaussian 88(TM) system (copyright 1988, Gaussian, Inc.),
 the Gaussian 86(TM) system (copyright 1986, Carnegie Mellon
 University), and the Gaussian 82(TM) system (copyright 1983,
 Carnegie Mellon University). Gaussian is a federally registered
 trademark of Gaussian, Inc.
  
 This software contains proprietary and confidential information,
 including trade secrets, belonging to Gaussian, Inc.
  
 This software is provided under written license and may be
 used, copied, transmitted, or stored only in accord with that
 written license.
  
 The following legend is applicable only to US Government
 contracts under FAR:
  
                    RESTRICTED RIGHTS LEGEND
  
 Use, reproduction and disclosure by the US Government is
 subject to restrictions as set forth in subparagraphs (a)
 and (c) of the Commercial Computer Software - Restricted
 Rights clause in FAR 52.227-19.
  
 Gaussian, Inc.
 340 Quinnipiac St., Bldg. 40, Wallingford CT 06492
  
  
 ---------------------------------------------------------------
 Warning -- This program may not be used in any manner that
 competes with the business of Gaussian, Inc. or will provide
 assistance to any competitor of Gaussian, Inc.  The licensee
 of this program is prohibited from giving any competitor of
 Gaussian, Inc. access to this program.  By using this program,
 the user acknowledges that Gaussian, Inc. is engaged in the
 business of creating and licensing software in the field of
 computational chemistry and represents and warrants to the
 licensee that it is not a competitor of Gaussian, Inc. and that
 it will not use this program in any manner prohibited above.
 ---------------------------------------------------------------
  

 Cite this work as:
 Gaussian 09, Revision A.01,
 M. J. Frisch, G. W. Trucks, H. B. Schlegel, G. E. Scuseria, 
 M. A. Robb, J. R. Cheeseman, G. Scalmani, V. Barone, B. Mennucci, 
 G. A. Petersson, H. Nakatsuji, M. Caricato, X. Li, H. P. Hratchian, 
 A. F. Izmaylov, J. Bloino, G. Zheng, J. L. Sonnenberg, M. Hada, 
 M. Ehara, K. Toyota, R. Fukuda, J. Hasegawa, M. Ishida, T. Nakajima, 
 Y. Honda, O. Kitao, H. Nakai, T. Vreven, J. A. Montgomery, Jr., 
 J. E. Peralta, F. Ogliaro, M. Bearpark, J. J. Heyd, E. Brothers, 
 K. N. Kudin, V. N. Staroverov, R. Kobayashi, J. Normand, 
 K. Raghavachari, A. Rendell, J. C. Burant, S. S. Iyengar, J. Tomasi, 
 M. Cossi, N. Rega, J. M. Millam, M. Klene, J. E. Knox, J. B. Cross, 
 V. Bakken, C. Adamo, J. Jaramillo, R. Gomperts, R. E. Stratmann, 
 O. Yazyev, A. J. Austin, R. Cammi, C. Pomelli, J. W. Ochterski, 
 R. L. Martin, K. Morokuma, V. G. Zakrzewski, G. A. Voth, 
 P. Salvador, J. J. Dannenberg, S. Dapprich, A. D. Daniels, 
 O. Farkas, J. B. Foresman, J. V. Ortiz, J. Cioslowski, 
 and D. J. Fox, Gaussian, Inc., Wallingford CT, 2009.
 
 ******************************************
 Gaussian 09:  EM64L-G09RevA.01  8-May-2009
                 8-Oct-2019 
 ******************************************
 %chk=td.chk
 %nProcShared=4
 Will use up to    4 processors via shared memory.
 Default route:  MP2=Direct MaxDisk=1000GB DenFit
 -----------------------------------
 # bp86/TZVP TD(root=1) force nosymm
 -----------------------------------
 1/10=7,30=1,38=1/1,3;
 2/12=2,15=1,17=6,18=5,40=1/2;
 3/5=19,7=101,11=2,16=1,25=1,30=1,71=1,74=404,82=47/1,2,8,3;
 4//1;
 5/5=2,38=5/2;
 8/6=1,10=1,107=1/1;
 9/8=1,15=2,42=1/14;
 10/5=4,31=1/2;
 6/7=2,8=2,9=2,10=2,18=1/1;
 7/12=6,13=5,14=1,29=1,30=1/1,2,3,16;
 1/10=7,30=1/3;
 99//99;
 -----
 Title
 -----
 Symbolic Z-matrix:
 Charge =  0 Multiplicity = 1
 6                    -3.08333   0.16684   0. 
 6                    -1.86741  -0.41875  0. 
 6                    -0.61149   0.2975    0. 
 6                     0.61149  -0.2975    0. 
 6                     1.86741   0.41875  0. 
 6                     3.08333  -0.16684   0. 
 1                    -0.66567   1.3935    0. 
 1                     0.66567  -1.3935    0. 
 1                     1.80449   1.51365  0. 
 1                     3.1917   -1.25477   0. 
 1                     4.00182   0.42163   0. 
 1                    -4.00182  -0.42163   0. 
 1                    -3.1917    1.25477   0. 
 1                    -1.80449  -1.51365  0. 
 

 GradGradGradGradGradGradGradGradGradGradGradGradGradGradGradGradGradGrad
 Berny optimization.
 Initialization pass.
 Trust Radius=3.00D-01 FncErr=1.00D-07 GrdErr=1.00D-07
 Number of steps in this run=   2 maximum allowed number of steps=   2.
 GradGradGradGradGradGradGradGradGradGradGradGradGradGradGradGradGradGrad

                          Input orientation:                          
 ---------------------------------------------------------------------
 Center     Atomic      Atomic             Coordinates (Angstroms)
 Number     Number       Type             X           Y           Z
 ---------------------------------------------------------------------
      1          6           0       -3.083331    0.166837    0.000001
      2          6           0       -1.867408   -0.418746   -0.000001
      3          6           0       -0.611494    0.297504    0.000000
      4          6           0        0.611494   -0.297504    0.000000
      5          6           0        1.867408    0.418746   -0.000001
      6          6           0        3.083331   -0.166837    0.000001
      7          1           0       -0.665669    1.393498    0.000000
      8          1           0        0.665669   -1.393498    0.000000
      9          1           0        1.804486    1.513646   -0.000001
     10          1           0        3.191699   -1.254773    0.000002
     11          1           0        4.001817    0.421633    0.000001
     12          1           0       -4.001818   -0.421634    0.000001
     13          1           0       -3.191699    1.254773    0.000002
     14          1           0       -1.804486   -1.513646   -0.000001
 ---------------------------------------------------------------------
                    Distance matrix (angstroms):
                    1          2          3          4          5
     1  C    0.000000
     2  C    1.349584   0.000000
     3  C    2.475288   1.445799   0.000000
     4  C    3.723888   2.481865   1.360049   0.000000
     5  C    4.957144   3.827564   2.481865   1.445799   0.000000
     6  C    6.175683   4.957144   3.723888   2.475288   1.349584
     7  H    2.711049   2.174490   1.097332   2.119111   2.714152
     8  H    4.060745   2.714152   2.119111   1.097332   2.174490
     9  H    5.069975   4.149331   2.704803   2.168754   1.096707
    10  H    6.434048   5.127719   4.107778   2.752058   2.134107
    11  H    7.089728   5.929084   4.614981   3.465754   2.134411
    12  H    1.090833   2.134412   3.465755   4.614982   5.929085
    13  H    1.093320   2.134107   2.752058   4.107778   5.127719
    14  H    2.111745   1.096707   2.168754   2.704803   4.149331
                    6          7          8          9         10
     6  C    0.000000
     7  H    4.060745   0.000000
     8  H    2.711049   3.088658   0.000000
     9  H    2.111745   2.473075   3.122241   0.000000
    10  H    1.093320   4.678956   2.529836   3.096531   0.000000
    11  H    1.090832   4.767593   3.797971   2.453723   1.861888
    12  H    7.089729   3.797972   4.767594   6.120333   7.241603
    13  H    6.434048   2.529836   4.678956   5.002887   6.858979
    14  H    5.069975   3.122241   2.473075   4.710539   5.002887
                   11         12         13         14
    11  H    0.000000
    12  H    8.047936   0.000000
    13  H    7.241602   1.861890   0.000000
    14  H    6.120332   2.453723   3.096531   0.000000
 Symmetry turned off by external request.
 Stoichiometry    C6H8
 Framework group  C2[X(C6H8)]
 Deg. of freedom    19
 Full point group                 C2      NOp   2
 Rotational constants (GHZ):     26.5126956      1.3260852      1.2629179
 Standard basis: TZVP (5D, 7F)
 Integral buffers will be    131072 words long.
 Raffenetti 2 integral format.
 Two-electron integral symmetry is turned off.
   162 basis functions,   274 primitive gaussians,   168 cartesian basis functions
    22 alpha electrons       22 beta electrons
       nuclear repulsion energy       193.1647414213 Hartrees.
 NAtoms=   14 NActive=   14 NUniq=   14 SFac= 7.50D-01 NAtFMM=   80 NAOKFM=F Big=F
 Standard density basis: TZVPFit (5D, 7F)
   300 Density fitting functions
 One-electron integrals computed using PRISM.
 NBasis=   162 RedAO= T  NBF=   162
 NBsUse=   162 1.00D-06 NBFU=   162
 NBasis=      162 NBas6D=      168 NTT=       13203   NTT6D=    14196
 NDBShl=      124 NDBF=        300 NDBF6D=      336  NNucDB=        0
 IDenFi=        2 ISolve=        0 FullAP=F BlkAPC=T NucTyp=        0
 TolInv= 1.00D-05 TolIt=  1.00D-10 IR12=0.
 Symmetry not used in FoFDir.
 MinBra= 0 MaxBra= 3 Meth= 1.
 IRaf=       0 NMat=   1 IRICut=       1 DoRegI=T DoRafI=F ISym2E= 0 JSym2E=0.
  NDBF=   300  NBFD=   300
 NRank=   300 NBFDU=   300
 S*AI*S=  6.77444509405    
 Harris functional with IExCor=  404 diagonalized for initial guess.
 ExpMin= 9.52D-02 ExpMax= 1.36D+04 ExpMxC= 4.63D+02 IAcc=2 IRadAn=         0 AccDes= 0.00D+00
 HarFok:  IExCor=  404 AccDes= 0.00D+00 IRadAn=         0 IDoV= 1
 ScaDFX=  1.000000  1.000000  1.000000  1.000000
 FoFCou: FMM=F IPFlag=           0 FMFlag=      100000 FMFlg1=           0
         NFxFlg=           0 DoJE=T BraDBF=F KetDBF=T FulRan=T
         Omega=  0.000000  0.000000  1.000000  0.000000  0.000000 ICntrl=     500 IOpCl=  0
         NMat0=    1 NMatS0=    1 NMatT0=    0 NMatD0=    1 NMtDS0=    0 NMtDT0=    0
         I1Cent=           4 NGrid=           0.
 Symmetry not used in FoFCou.
 Requested convergence on RMS density matrix=1.00D-08 within 128 cycles.
 Requested convergence on MAX density matrix=1.00D-06.
 Requested convergence on             energy=1.00D-06.
 No special actions if energy rises.
 FoFCou: FMM=F IPFlag=           0 FMFlag=      100000 FMFlg1=           0
         NFxFlg=           0 DoJE=T BraDBF=T KetDBF=F FulRan=T
         Omega=  0.000000  0.000000  1.000000  0.000000  0.000000 ICntrl=     500 IOpCl=  0
         NMat0=    1 NMatS0=    1 NMatT0=    0 NMatD0=    1 NMtDS0=    0 NMtDT0=    0
         I1Cent=           5 NGrid=           0.
 Symmetry not used in FoFCou.
 Initial convergence to 1.0D-05 achieved.  Increase integral accuracy.
 SCF Done:  E(RB-P86) =  -233.469871810     A.U. after   14 cycles
             Convg  =    0.6459D-08             -V/T =  2.0052
 ExpMin= 9.52D-02 ExpMax= 1.36D+04 ExpMxC= 4.63D+02 IAcc=3 IRadAn=         5 AccDes= 0.00D+00
 HarFok:  IExCor=  205 AccDes= 0.00D+00 IRadAn=         5 IDoV=-2
 ScaDFX=  1.000000  1.000000  1.000000  1.000000
 Range of M.O.s used for correlation:     7   162
 NBasis=   162 NAE=    22 NBE=    22 NFC=     6 NFV=     0
 NROrb=    156 NOA=    16 NOB=    16 NVA=   140 NVB=   140

 **** Warning!!: The largest alpha MO coefficient is  0.31399874D+02

    12 initial guesses have been made.
 Convergence on wavefunction:    0.000001000000000
 Iteration     1 Dimension    12 NMult    12
 CISAX will form    12 AO SS matrices at one time.
 New state      1 was old state      2
 New state      2 was old state      1
 New state      3 was old state      4
 Iteration     2 Dimension    24 NMult    24
 New state      1 was old state      2
 New state      2 was old state      1
 Iteration     3 Dimension    27 NMult    27
 Iteration     4 Dimension    30 NMult    30
 Iteration     5 Dimension    33 NMult    33
 Iteration     6 Dimension    36 NMult    36
 Iteration     7 Dimension    39 NMult    39
 Iteration     8 Dimension    42 NMult    42
 Iteration     9 Dimension    45 NMult    45
 Iteration    10 Dimension    48 NMult    48
 Iteration    11 Dimension    51 NMult    51
 Iteration    12 Dimension    54 NMult    54
 Iteration    13 Dimension    57 NMult    57
 Iteration    14 Dimension    60 NMult    60
 Iteration    15 Dimension    63 NMult    63
 Iteration    16 Dimension    66 NMult    66
 Iteration    17 Dimension    69 NMult    69
 Iteration    18 Dimension    72 NMult    72
 Iteration    19 Dimension    75 NMult    75
 Iteration    20 Dimension    78 NMult    78
 Iteration    21 Dimension    81 NMult    81
 Iteration    22 Dimension    84 NMult    84
 Iteration    23 Dimension    87 NMult    87
 Iteration    24 Dimension    90 NMult    90
 Iteration    25 Dimension    93 NMult    93
 Iteration    26 Dimension    96 NMult    96
 Iteration    27 Dimension    99 NMult    99
 Iteration    28 Dimension   101 NMult   101
 Iteration    29 Dimension   103 NMult   103
 Iteration    30 Dimension   105 NMult   105
 Iteration    31 Dimension   107 NMult   107
 Iteration    32 Dimension   109 NMult   109
 Iteration    33 Dimension   110 NMult   110
 Iteration    34 Dimension   111 NMult   111
 Iteration    35 Dimension   112 NMult   112
 Iteration    36 Dimension   113 NMult   113
 ***********************************************************************
 Excited states from <AA,BB:AA,BB> singles matrix:
 ***********************************************************************
 
 Ground to excited state transition electric dipole moments (Au):
       state          X           Y           Z        Dip. S.      Osc.
         1         3.0116     -0.2214      0.0000      9.1187      0.9972
         2         0.0000      0.0000      0.0000      0.0000      0.0000
         3         0.0000      0.0000      0.0000      0.0000      0.0000
 Ground to excited state transition velocity dipole moments (Au):
       state          X           Y           Z        Dip. S.      Osc.
         1        -0.4771      0.0378      0.0000      0.2290      0.9309
         2         0.0000      0.0000      0.0000      0.0000      0.0000
         3         0.0000      0.0000      0.0000      0.0000      0.0000
 Ground to excited state transition magnetic dipole moments (Au):
       state          X           Y           Z
         1         0.0000      0.0000      0.0000
         2         0.0000      0.0000      0.2175
         3         0.1928     -0.1743      0.0000
 <0|del|b> * <b|rxdel|0> + <0|del|b> * <b|delr+rdel|0>
 Rotatory Strengths (R) in cgs (10**-40 erg-esu-cm/Gauss)
       state          XX          YY          ZZ    R(velocity)
         1         0.0003      0.0014      0.0006      0.0008
 Total R(velocity) tensor for State=          1
                 1             2             3 
      1   0.316938D-03  0.400225D-02 -0.119939D-02
      2   0.108143D-03  0.136561D-02 -0.403945D-03
      3  -0.517031D-05 -0.652899D-04  0.632651D-03
         2         0.0000      0.0000      0.0000      0.0000
 Total R(velocity) tensor for State=          2
                 1             2             3 
      1  -0.595771D-05  0.183049D-05 -0.120894D-04
      2   0.000000D+00 -0.472824D-05  0.438931D-05
      3   0.000000D+00  0.000000D+00  0.000000D+00
         3         0.0001      0.0003      0.0002      0.0002
 Total R(velocity) tensor for State=          3
                 1             2             3 
      1   0.102172D-03  0.284756D-03  0.000000D+00
      2   0.102646D-03  0.286076D-03  0.000000D+00
      3   0.840677D-05 -0.638800D-05  0.231736D-03
 1/2[<0|r|b>*<b|rxdel|0> + (<0|rxdel|b>*<b|r|0>)*]
 Rotatory Strengths (R) in cgs (10**-40 erg-esu-cm/Gauss)
       state          XX          YY          ZZ     R(length)     R(au)
         1         0.0021      0.0003      0.0000      0.0008      0.0000
         2         0.0000      0.0000      0.0000      0.0000      0.0000
         3         0.0005      0.0001      0.0000      0.0002      0.0000
  1/2[<0|del|b>*<b|r|0> + (<0|r|b>*<b|del|0>)*] (Au)
       state          X           Y           Z        Dip. S.   Osc.(frdel)
         1        -1.4368     -0.0084      0.0000      1.4452      0.9635
         2         0.0000      0.0000      0.0000      0.0000      0.0000
         3         0.0000      0.0000      0.0000      0.0000      0.0000
 Ground to excited state transition densities written to RWF  633

 Excitation energies and oscillator strengths:
 
 Excited state symmetry could not be determined.
 Excited State   1:      Singlet-?Sym    4.4637 eV  277.76 nm  f=0.9972  <S**2>=0.000
      22 -> 23         0.70883
      22 <- 23        -0.14076
 This state for optimization and/or second-order correction.
 Copying the excited state density for this state as the 1-particle RhoCI density.
 
 Excited state symmetry could not be determined.
 Excited State   2:      Singlet-?Sym    5.0364 eV  246.18 nm  f=0.0000  <S**2>=0.000
      21 -> 23         0.52292
      22 -> 24         0.47573
 
 Excited state symmetry could not be determined.
 Excited State   3:      Singlet-?Sym    6.1141 eV  202.78 nm  f=0.0000  <S**2>=0.000
      20 -> 23         0.70285
 SavETr:  write IOETrn=   770 NScale= 10 NData=  16 NLR=1 LETran=      64.
          IDoAtm=11111111111111
          Differentiating once with respect to electric field.
                with respect to dipole field.
          Differentiating once with respect to nuclear coordinates.
          There are     1 degrees of freedom in the 1st order CPHF.  IDoFFX=0.
 FoFCou: FMM=F IPFlag=           0 FMFlag=      100000 FMFlg1=           0
         NFxFlg=           0 DoJE=T BraDBF=T KetDBF=F FulRan=T
         Omega=  0.000000  0.000000  1.000000  0.000000  0.000000 ICntrl=     500 IOpCl=  0
         NMat0=    1 NMatS0=    1 NMatT0=    0 NMatD0=    1 NMtDS0=    0 NMtDT0=    0
         I1Cent=           5 NGrid=           0.
 Symmetry not used in FoFCou.
 LinEq1:  Iter=  0 NonCon=     1 RMS=1.46D-02 Max=5.99D-01
 AX will form     1 AO Fock derivatives at one time.
 LinEq1:  Iter=  1 NonCon=     1 RMS=4.15D-03 Max=1.24D-01
 LinEq1:  Iter=  2 NonCon=     1 RMS=3.94D-03 Max=1.04D-01
 LinEq1:  Iter=  3 NonCon=     1 RMS=2.26D-03 Max=4.06D-02
 LinEq1:  Iter=  4 NonCon=     1 RMS=8.77D-04 Max=1.69D-02
 LinEq1:  Iter=  5 NonCon=     1 RMS=3.85D-04 Max=6.99D-03
 LinEq1:  Iter=  6 NonCon=     1 RMS=1.45D-04 Max=2.52D-03
 LinEq1:  Iter=  7 NonCon=     1 RMS=2.27D-05 Max=2.74D-04
 LinEq1:  Iter=  8 NonCon=     1 RMS=4.56D-06 Max=1.11D-04
 LinEq1:  Iter=  9 NonCon=     1 RMS=5.95D-06 Max=2.74D-04
 LinEq1:  Iter= 10 NonCon=     1 RMS=2.17D-06 Max=3.03D-05
 LinEq1:  Iter= 11 NonCon=     1 RMS=3.06D-07 Max=4.68D-06
 LinEq1:  Iter= 12 NonCon=     1 RMS=7.90D-08 Max=2.19D-06
 LinEq1:  Iter= 13 NonCon=     1 RMS=8.19D-08 Max=1.52D-06
 LinEq1:  Iter= 14 NonCon=     1 RMS=1.77D-08 Max=1.97D-07
 LinEq1:  Iter= 15 NonCon=     1 RMS=5.06D-09 Max=1.03D-07
 LinEq1:  Iter= 16 NonCon=     1 RMS=3.24D-09 Max=4.29D-08
 LinEq1:  Iter= 17 NonCon=     1 RMS=5.62D-10 Max=7.23D-09
 LinEq1:  Iter= 18 NonCon=     0 RMS=6.37D-11 Max=5.76D-10
 Linear equations converged to 1.000D-10 1.000D-09 after    18 iterations.
 End of Minotr Frequency-dependent properties file   721 does not exist.
 End of Minotr Frequency-dependent properties file   722 does not exist.

 **********************************************************************

            Population analysis using the SCF density.

 **********************************************************************

 Alpha  occ. eigenvalues --   -9.90926  -9.90924  -9.90892  -9.90843  -9.89924
 Alpha  occ. eigenvalues --   -9.89924  -0.75100  -0.71229  -0.65623  -0.56658
 Alpha  occ. eigenvalues --   -0.50726  -0.50206  -0.44085  -0.41717  -0.38717
 Alpha  occ. eigenvalues --   -0.36437  -0.34142  -0.32330  -0.31317  -0.30986
 Alpha  occ. eigenvalues --   -0.26684  -0.19810
 Alpha virt. eigenvalues --   -0.08842  -0.00885   0.02632   0.03345   0.05378
 Alpha virt. eigenvalues --    0.05827   0.07181   0.08596   0.10497   0.11408
 Alpha virt. eigenvalues --    0.12629   0.14789   0.16248   0.17548   0.17889
 Alpha virt. eigenvalues --    0.19111   0.20857   0.20891   0.23598   0.24029
 Alpha virt. eigenvalues --    0.25653   0.26098   0.26111   0.27666   0.30088
 Alpha virt. eigenvalues --    0.32631   0.33392   0.33446   0.33847   0.36330
 Alpha virt. eigenvalues --    0.38916   0.41118   0.41751   0.42023   0.43166
 Alpha virt. eigenvalues --    0.44350   0.45273   0.47475   0.51830   0.52492
 Alpha virt. eigenvalues --    0.53575   0.55682   0.58008   0.60448   0.60889
 Alpha virt. eigenvalues --    0.63223   0.68039   0.68050   1.12114   1.13026
 Alpha virt. eigenvalues --    1.14397   1.16045   1.18096   1.19110   1.19765
 Alpha virt. eigenvalues --    1.20088   1.21192   1.21295   1.22967   1.23017
 Alpha virt. eigenvalues --    1.23111   1.24394   1.30977   1.32854   1.34740
 Alpha virt. eigenvalues --    1.35845   1.36472   1.36513   1.38886   1.39063
 Alpha virt. eigenvalues --    1.39725   1.41261   1.41263   1.43418   1.48272
 Alpha virt. eigenvalues --    1.54025   1.54174   1.62205   1.65328   1.67401
 Alpha virt. eigenvalues --    1.68526   1.70729   1.73410   1.73467   1.76389
 Alpha virt. eigenvalues --    1.76946   1.77029   1.77548   1.77861   1.81339
 Alpha virt. eigenvalues --    1.84300   1.85598   1.87085   1.92414   1.98844
 Alpha virt. eigenvalues --    1.99322   1.99448   2.03626   2.06568   2.08074
 Alpha virt. eigenvalues --    2.14288   2.19393   2.20071   2.20225   2.26671
 Alpha virt. eigenvalues --    2.32903   2.35779   2.38911   2.40842   2.43056
 Alpha virt. eigenvalues --    2.48500   2.48613   2.49069   2.53391   2.54016
 Alpha virt. eigenvalues --    2.55007   2.59569   2.63936   2.67476   2.68435
 Alpha virt. eigenvalues --    2.70636   2.90422   2.92915   2.93046   2.95400
 Alpha virt. eigenvalues --    3.01654   3.05113   3.07902   3.11104   3.16938
 Alpha virt. eigenvalues --    3.29470   3.31266   3.47488   3.50761  21.16497
 Alpha virt. eigenvalues --   21.33916  21.48749  21.79508  21.84569  21.85660
          Condensed to atoms (all electrons):
              1          2          3          4          5          6
     1  C    5.001286   0.556053  -0.045888   0.009081  -0.002163   0.000159
     2  C    0.556053   4.914241   0.362697  -0.011309   0.012750  -0.002163
     3  C   -0.045888   0.362697   5.002552   0.511871  -0.011309   0.009081
     4  C    0.009081  -0.011309   0.511871   5.002552   0.362697  -0.045888
     5  C   -0.002163   0.012750  -0.011309   0.362697   4.914241   0.556053
     6  C    0.000159  -0.002163   0.009081  -0.045888   0.556053   5.001286
     7  H   -0.000451  -0.061171   0.409636  -0.052137  -0.008528   0.002643
     8  H    0.002643  -0.008528  -0.052137   0.409636  -0.061171  -0.000451
     9  H    0.000082   0.001829  -0.005129  -0.059687   0.402409  -0.037665
    10  H    0.000006   0.000022   0.002962  -0.011245  -0.057728   0.415273
    11  H   -0.000002   0.000055  -0.001440   0.011297  -0.026538   0.395190
    12  H    0.395190  -0.026538   0.011297  -0.001440   0.000055  -0.000002
    13  H    0.415273  -0.057729  -0.011245   0.002962   0.000022   0.000006
    14  H   -0.037665   0.402409  -0.059687  -0.005129   0.001829   0.000082
              7          8          9         10         11         12
     1  C   -0.000451   0.002643   0.000082   0.000006  -0.000002   0.395190
     2  C   -0.061171  -0.008528   0.001829   0.000022   0.000055  -0.026538
     3  C    0.409636  -0.052137  -0.005129   0.002962  -0.001440   0.011297
     4  C   -0.052137   0.409636  -0.059687  -0.011245   0.011297  -0.001440
     5  C   -0.008528  -0.061171   0.402409  -0.057728  -0.026538   0.000055
     6  C    0.002643  -0.000451  -0.037665   0.415273   0.395190  -0.000002
     7  H    0.566308   0.006977   0.003390   0.000039  -0.000039   0.000025
     8  H    0.006977   0.566308   0.005793   0.003880   0.000025  -0.000039
     9  H    0.003390   0.005793   0.566270   0.007069  -0.008874  -0.000001
    10  H    0.000039   0.003880   0.007069   0.551162  -0.037537   0.000000
    11  H   -0.000039   0.000025  -0.008874  -0.037537   0.542559   0.000000
    12  H    0.000025  -0.000039  -0.000001   0.000000   0.000000   0.542560
    13  H    0.003880   0.000039   0.000019   0.000000   0.000000  -0.037537
    14  H    0.005793   0.003390   0.000027   0.000019  -0.000001  -0.008874
             13         14
     1  C    0.415273  -0.037665
     2  C   -0.057729   0.402409
     3  C   -0.011245  -0.059687
     4  C    0.002962  -0.005129
     5  C    0.000022   0.001829
     6  C    0.000006   0.000082
     7  H    0.003880   0.005793
     8  H    0.000039   0.003390
     9  H    0.000019   0.000027
    10  H    0.000000   0.000019
    11  H    0.000000  -0.000001
    12  H   -0.037537  -0.008874
    13  H    0.551162   0.007069
    14  H    0.007069   0.566270
 Mulliken atomic charges:
              1
     1  C   -0.293604
     2  C   -0.082618
     3  C   -0.123262
     4  C   -0.123262
     5  C   -0.082618
     6  C   -0.293605
     7  H    0.123636
     8  H    0.123636
     9  H    0.124468
    10  H    0.126078
    11  H    0.125303
    12  H    0.125303
    13  H    0.126078
    14  H    0.124468
 Sum of Mulliken atomic charges =   0.00000
 Mulliken charges with hydrogens summed into heavy atoms:
              1
     1  C   -0.042224
     2  C    0.041850
     3  C    0.000374
     4  C    0.000374
     5  C    0.041850
     6  C   -0.042224
 Sum of Mulliken charges with hydrogens summed into heavy atoms =   0.00000
 Electronic spatial extent (au):  <R**2>=            924.1027
 Charge=              0.0000 electrons
 Dipole moment (field-independent basis, Debye):
    X=              0.0000    Y=              0.0000    Z=              0.0000  Tot=              0.0000
 Quadrupole moment (field-independent basis, Debye-Ang):
   XX=            -34.6540   YY=            -33.6840   ZZ=            -42.5491
   XY=              0.0789   XZ=              0.0000   YZ=              0.0000
 Traceless Quadrupole moment (field-independent basis, Debye-Ang):
   XX=              2.3083   YY=              3.2784   ZZ=             -5.5867
   XY=              0.0789   XZ=              0.0000   YZ=              0.0000
 Octapole moment (field-independent basis, Debye-Ang**2):
  XXX=              0.0000  YYY=              0.0000  ZZZ=              0.0000  XYY=              0.0000
  XXY=              0.0000  XXZ=              0.0000  XZZ=              0.0000  YZZ=              0.0000
  YYZ=              0.0000  XYZ=              0.0000
 Hexadecapole moment (field-independent basis, Debye-Ang**3):
 XXXX=          -1069.5427 YYYY=           -101.5038 ZZZZ=            -51.5288 XXXY=             12.0870
 XXXZ=              0.0000 YYYX=             -1.9411 YYYZ=              0.0000 ZZZX=              0.0000
 ZZZY=              0.0000 XXYY=           -194.6907 XXZZ=           -230.5928 YYZZ=            -28.8685
 XXYZ=              0.0000 YYXZ=              0.0000 ZZXY=             -0.0561
 N-N= 1.931647414213D+02 E-N=-9.269992742939D+02  KE= 2.322551014839D+02
 Fitting Gamma and (X+Y) densities for TD-KS first derivatives, JSym2E=0.
 Calling FoFJK, ICntrl=      5527 FMM=F ISym2X=0 I1Cent= 4 IOpClX= 0 NMat=1 NMatS=1 NMatT=0.
 -------------------------------------------------------------------
 Center     Atomic                   Forces (Hartrees/Bohr)
 Number     Number              X              Y              Z
 -------------------------------------------------------------------
      1        6          -0.037777306    0.016954656    0.000000101
      2        6           0.046520825   -0.009496817   -0.000000005
      3        6          -0.053798017    0.011356822   -0.000000012
      4        6           0.053798042   -0.011356980   -0.000000012
      5        6          -0.046520792    0.009497076   -0.000000005
      6        6           0.037776506   -0.016955250    0.000000101
      7        1          -0.000250877    0.000208179    0.000000014
      8        1           0.000250906   -0.000208187    0.000000014
      9        1          -0.000679060    0.000276634   -0.000000061
     10        1           0.000623175   -0.000380044    0.000000016
     11        1           0.000557211   -0.000330806   -0.000000053
     12        1          -0.000556447    0.000331329   -0.000000053
     13        1          -0.000623218    0.000380014    0.000000016
     14        1           0.000679053   -0.000276627   -0.000000061
 -------------------------------------------------------------------
 Cartesian Forces:  Max     0.053798042 RMS     0.018249261

 GradGradGradGradGradGradGradGradGradGradGradGradGradGradGradGradGradGrad
 Berny optimization.
 Search for a local minimum.
 Step number   1 out of a maximum of    2
 All quantities printed in internal units (Hartrees-Bohrs-Radians)
 Second derivative matrix not updated -- first step.
     Eigenvalues ---    0.00222   0.00400   0.00490   0.00855   0.01726
     Eigenvalues ---    0.02208   0.02690   0.02771   0.03511   0.07100
     Eigenvalues ---    0.07174   0.07188   0.07914   0.08498   0.09488
     Eigenvalues ---    0.13668   0.14434   0.15604   0.18653   0.19851
     Eigenvalues ---    0.23481   0.24110   0.29891   0.33390   0.37971
     Eigenvalues ---    0.49680   0.59186   0.64496   0.66721   0.89248
     Eigenvalues ---    0.94645   1.17326   1.32684   1.35461   1.54769
     Eigenvalues ---    1.67468
 Quadratic step=3.067D-01 exceeds max=3.000D-01 adjusted using Lamda=-6.352D-04.
 Angle between NR and scaled steps=   0.65 degrees.
 Angle between quadratic step and forces=  70.20 degrees.
 Linear search not attempted -- first point.
 TrRot=  0.000000  0.000000  0.000000 -0.000448  0.000000 -0.000448
 Variable       Old X    -DE/DX   Delta X   Delta X   Delta X     New X
                                 (Linear)    (Quad)   (Total)
    X1       -5.82665  -0.03778   0.00000  -0.10293  -0.10263  -5.92928
    Y1        0.31528   0.01695   0.00000   0.01823   0.02354   0.33882
    Z1        0.00000   0.00000   0.00000   0.00000   0.00000   0.00000
    X2       -3.52889   0.04652   0.00000  -0.02011  -0.02081  -3.54970
    Y2       -0.79132  -0.00950   0.00000   0.01219   0.01537  -0.77595
    Z2        0.00000   0.00000   0.00000   0.00000   0.00000   0.00000
    X3       -1.15556  -0.05380   0.00000  -0.04942  -0.04891  -1.20447
    Y3        0.56220   0.01136   0.00000   0.00511   0.00619   0.56839
    Z3        0.00000   0.00000   0.00000   0.00000   0.00000   0.00000
    X4        1.15556   0.05380   0.00000   0.04942   0.04891   1.20447
    Y4       -0.56220  -0.01136   0.00000  -0.00511  -0.00619  -0.56839
    Z4        0.00000   0.00000   0.00000   0.00000   0.00000   0.00000
    X5        3.52889  -0.04652   0.00000   0.02011   0.02081   3.54970
    Y5        0.79132   0.00950   0.00000  -0.01219  -0.01537   0.77595
    Z5        0.00000   0.00000   0.00000   0.00000   0.00000   0.00000
    X6        5.82665   0.03778   0.00000   0.10293   0.10263   5.92928
    Y6       -0.31528  -0.01696   0.00000  -0.01823  -0.02354  -0.33882
    Z6        0.00000   0.00000   0.00000   0.00000   0.00000   0.00000
    X7       -1.25793  -0.00025   0.00000  -0.06899  -0.06662  -1.32456
    Y7        2.63333   0.00021   0.00000   0.00477   0.00596   2.63929
    Z7        0.00000   0.00000   0.00000   0.00000   0.00000   0.00000
    X8        1.25793   0.00025   0.00000   0.06899   0.06663   1.32456
    Y8       -2.63333  -0.00021   0.00000  -0.00477  -0.00596  -2.63929
    Z8        0.00000   0.00000   0.00000   0.00000   0.00000   0.00000
    X9        3.40998  -0.00068   0.00000  -0.00431  -0.00176   3.40822
    Y9        2.86038   0.00028   0.00000  -0.01264  -0.01569   2.84468
    Z9        0.00000   0.00000   0.00000  -0.00001  -0.00001  -0.00001
   X10        6.03144   0.00062   0.00000   0.13166   0.12952   6.16096
   Y10       -2.37118  -0.00038   0.00000  -0.01660  -0.02212  -2.39330
   Z10        0.00000   0.00000   0.00000   0.00001   0.00001   0.00001
   X11        7.56234   0.00056   0.00000   0.09304   0.09375   7.65609
   Y11        0.79677  -0.00033   0.00000  -0.00151  -0.00837   0.78840
   Z11        0.00000   0.00000   0.00000   0.00000   0.00000   0.00000
   X12       -7.56234  -0.00056   0.00000  -0.09304  -0.09375  -7.65609
   Y12       -0.79677   0.00033   0.00000   0.00151   0.00837  -0.78840
   Z12        0.00000   0.00000   0.00000   0.00000   0.00000   0.00000
   X13       -6.03144  -0.00062   0.00000  -0.13166  -0.12952  -6.16096
   Y13        2.37118   0.00038   0.00000   0.01660   0.02212   2.39330
   Z13        0.00000   0.00000   0.00000   0.00001   0.00001   0.00001
   X14       -3.40998   0.00068   0.00000   0.00431   0.00176  -3.40822
   Y14       -2.86038  -0.00028   0.00000   0.01264   0.01569  -2.84468
   Z14        0.00000   0.00000   0.00000  -0.00001  -0.00001  -0.00001
         Item               Value     Threshold  Converged?
 Maximum Force            0.053798     0.000450     NO 
 RMS     Force            0.018249     0.000300     NO 
 Maximum Displacement     0.129521     0.001800     NO 
 RMS     Displacement     0.046309     0.001200     NO 
 Predicted change in Energy=-6.049841D-03
 GradGradGradGradGradGradGradGradGradGradGradGradGradGradGradGradGradGrad

 1\1\GINC-CLODOMIRA\Force\RTD-BP86-FC\TZVP\C6H8\DIEGOA\08-Oct-2019\0\\#
  bp86/TZVP TD(root=1) force nosymm\\Title\\0,1\C,-3.083331,0.166837,0.
 000001\C,-1.867408,-0.418746,-0.000001\C,-0.611494,0.297504,0.\C,0.611
 494,-0.297504,0.\C,1.867408,0.418746,-0.000001\C,3.083331,-0.166837,0.
 000001\H,-0.665669,1.393498,0.\H,0.665669,-1.393498,0.\H,1.804486,1.51
 3646,-0.000001\H,3.191699,-1.254773,0.000002\H,4.001817,0.421633,0.000
 001\H,-4.001818,-0.421634,0.000001\H,-3.191699,1.254773,0.000002\H,-1.
 804486,-1.513646,-0.000001\\Version=EM64L-G09RevA.01\HF=-233.4698718\R
 MSD=6.459e-09\RMSF=1.825e-02\Dipole=-0.0000007,0.0000003,-0.0000007\PG
 =C02 [X(C6H8)]\\@


 Sacred cows make the best hamburger.
                               -- Mark Twain
 Job cpu time:  0 days  0 hours 16 minutes 34.2 seconds.
 File lengths (MBytes):  RWF=     45 Int=      0 D2E=      0 Chk=      6 Scr=      1
 Normal termination of Gaussian 09 at Tue Oct  8 13:41:43 2019.
