 Entering Gaussian System, Link 0=g09
 Input=freq.com
 Output=freq.log
 Initial command:
 /home/diegoa/progs/g09/l1.exe /home/diegoa/g09scratch/Gau-6746.inp -scrdir=/home/diegoa/g09scratch/
 Default is to use a total of   4 processors:
                                4 via shared-memory
                                1 via Linda
 Entering Link 1 = /home/diegoa/progs/g09/l1.exe PID=      6750.
  
 Copyright (c) 1988,1990,1992,1993,1995,1998,2003,2009, Gaussian, Inc.
                  All Rights Reserved.
  
 This is part of the Gaussian(R) 09 program.  It is based on
 the Gaussian(R) 03 system (copyright 2003, Gaussian, Inc.),
 the Gaussian(R) 98 system (copyright 1998, Gaussian, Inc.),
 the Gaussian(R) 94 system (copyright 1995, Gaussian, Inc.),
 the Gaussian 92(TM) system (copyright 1992, Gaussian, Inc.),
 the Gaussian 90(TM) system (copyright 1990, Gaussian, Inc.),
 the Gaussian 88(TM) system (copyright 1988, Gaussian, Inc.),
 the Gaussian 86(TM) system (copyright 1986, Carnegie Mellon
 University), and the Gaussian 82(TM) system (copyright 1983,
 Carnegie Mellon University). Gaussian is a federally registered
 trademark of Gaussian, Inc.
  
 This software contains proprietary and confidential information,
 including trade secrets, belonging to Gaussian, Inc.
  
 This software is provided under written license and may be
 used, copied, transmitted, or stored only in accord with that
 written license.
  
 The following legend is applicable only to US Government
 contracts under FAR:
  
                    RESTRICTED RIGHTS LEGEND
  
 Use, reproduction and disclosure by the US Government is
 subject to restrictions as set forth in subparagraphs (a)
 and (c) of the Commercial Computer Software - Restricted
 Rights clause in FAR 52.227-19.
  
 Gaussian, Inc.
 340 Quinnipiac St., Bldg. 40, Wallingford CT 06492
  
  
 ---------------------------------------------------------------
 Warning -- This program may not be used in any manner that
 competes with the business of Gaussian, Inc. or will provide
 assistance to any competitor of Gaussian, Inc.  The licensee
 of this program is prohibited from giving any competitor of
 Gaussian, Inc. access to this program.  By using this program,
 the user acknowledges that Gaussian, Inc. is engaged in the
 business of creating and licensing software in the field of
 computational chemistry and represents and warrants to the
 licensee that it is not a competitor of Gaussian, Inc. and that
 it will not use this program in any manner prohibited above.
 ---------------------------------------------------------------
  

 Cite this work as:
 Gaussian 09, Revision A.01,
 M. J. Frisch, G. W. Trucks, H. B. Schlegel, G. E. Scuseria, 
 M. A. Robb, J. R. Cheeseman, G. Scalmani, V. Barone, B. Mennucci, 
 G. A. Petersson, H. Nakatsuji, M. Caricato, X. Li, H. P. Hratchian, 
 A. F. Izmaylov, J. Bloino, G. Zheng, J. L. Sonnenberg, M. Hada, 
 M. Ehara, K. Toyota, R. Fukuda, J. Hasegawa, M. Ishida, T. Nakajima, 
 Y. Honda, O. Kitao, H. Nakai, T. Vreven, J. A. Montgomery, Jr., 
 J. E. Peralta, F. Ogliaro, M. Bearpark, J. J. Heyd, E. Brothers, 
 K. N. Kudin, V. N. Staroverov, R. Kobayashi, J. Normand, 
 K. Raghavachari, A. Rendell, J. C. Burant, S. S. Iyengar, J. Tomasi, 
 M. Cossi, N. Rega, J. M. Millam, M. Klene, J. E. Knox, J. B. Cross, 
 V. Bakken, C. Adamo, J. Jaramillo, R. Gomperts, R. E. Stratmann, 
 O. Yazyev, A. J. Austin, R. Cammi, C. Pomelli, J. W. Ochterski, 
 R. L. Martin, K. Morokuma, V. G. Zakrzewski, G. A. Voth, 
 P. Salvador, J. J. Dannenberg, S. Dapprich, A. D. Daniels, 
 O. Farkas, J. B. Foresman, J. V. Ortiz, J. Cioslowski, 
 and D. J. Fox, Gaussian, Inc., Wallingford CT, 2009.
 
 ******************************************
 Gaussian 09:  EM64L-G09RevA.01  8-May-2009
                30-Oct-2019 
 ******************************************
 %chk=freq.chk
 %NProcShared=4
 Will use up to    4 processors via shared memory.
 Default route:  MP2=Direct MaxDisk=1000GB DenFit
 -------------------------------------------------
 # pbepbe/6-31G** opt Freq=(savenormalmodes,raman)
 -------------------------------------------------
 1/14=-1,18=20,19=15,26=3,38=1/1,3;
 2/9=110,12=2,17=6,18=5,40=1/2;
 3/5=1,6=6,7=101,11=2,16=1,25=1,30=1,71=1,74=1009,82=47/1,2,3;
 4//1;
 5/5=2,38=5/2;
 6/7=2,8=2,9=2,10=2,28=1/1;
 7/92=1/1,2,3,16;
 1/14=-1,18=20,19=15/3(2);
 2/9=110/2;
 99//99;
 2/9=110/2;
 3/5=1,6=6,7=101,11=2,16=1,25=1,30=1,71=1,74=1009,82=47/1,2,3;
 4/5=5,16=3/1;
 5/5=2,38=5/2;
 7/92=1/1,2,3,16;
 1/14=-1,18=20,19=15/3(-5);
 2/9=110/2;
 6/7=2,8=2,9=2,10=2,19=2,28=1/1;
 99/9=1/99;
 -----
 Title
 -----
 Symbolic Z-matrix:
 Charge =  0 Multiplicity = 1
 6                    -0.15359   0.38985  -0.00012 
 7                     1.08781  -0.15869  -0.00009 
 8                    -1.18865  -0.23917   0.00005 
 1                     1.17741  -1.1643    0.00018 
 1                     1.92007   0.4088    0.00031 
 1                    -0.12309   1.49569   0.00006 
 

 GradGradGradGradGradGradGradGradGradGradGradGradGradGradGradGradGradGrad
 Berny optimization.
 Initialization pass.
                           ----------------------------
                           !    Initial Parameters    !
                           ! (Angstroms and Degrees)  !
 --------------------------                            --------------------------
 ! Name  Definition              Value          Derivative Info.                !
 --------------------------------------------------------------------------------
 ! R1    R(1,2)                  1.3572         estimate D2E/DX2                !
 ! R2    R(1,3)                  1.2112         estimate D2E/DX2                !
 ! R3    R(1,6)                  1.1063         estimate D2E/DX2                !
 ! R4    R(2,4)                  1.0096         estimate D2E/DX2                !
 ! R5    R(2,5)                  1.0073         estimate D2E/DX2                !
 ! A1    A(2,1,3)              124.8735         estimate D2E/DX2                !
 ! A2    A(2,1,6)              112.2593         estimate D2E/DX2                !
 ! A3    A(3,1,6)              122.8671         estimate D2E/DX2                !
 ! A4    A(1,2,4)              118.9303         estimate D2E/DX2                !
 ! A5    A(1,2,5)              121.872          estimate D2E/DX2                !
 ! A6    A(4,2,5)              119.1976         estimate D2E/DX2                !
 ! D1    D(3,1,2,4)             -0.0064         estimate D2E/DX2                !
 ! D2    D(3,1,2,5)           -179.9636         estimate D2E/DX2                !
 ! D3    D(6,1,2,4)            179.9728         estimate D2E/DX2                !
 ! D4    D(6,1,2,5)              0.0155         estimate D2E/DX2                !
 --------------------------------------------------------------------------------
 Trust Radius=3.00D-01 FncErr=1.00D-07 GrdErr=1.00D-06
 Number of steps in this run=  25 maximum allowed number of steps= 100.
 GradGradGradGradGradGradGradGradGradGradGradGradGradGradGradGradGradGrad

                          Input orientation:                          
 ---------------------------------------------------------------------
 Center     Atomic      Atomic             Coordinates (Angstroms)
 Number     Number       Type             X           Y           Z
 ---------------------------------------------------------------------
      1          6           0       -0.153588    0.389845   -0.000116
      2          7           0        1.087813   -0.158690   -0.000092
      3          8           0       -1.188645   -0.239167    0.000052
      4          1           0        1.177406   -1.164300    0.000175
      5          1           0        1.920074    0.408803    0.000305
      6          1           0       -0.123090    1.495692    0.000063
 ---------------------------------------------------------------------
                    Distance matrix (angstroms):
                    1          2          3          4          5
     1  C    0.000000
     2  N    1.357191   0.000000
     3  O    1.211197   2.277880   0.000000
     4  H    2.046194   1.009593   2.540486   0.000000
     5  H    2.073749   1.007327   3.175531   1.739600   0.000000
     6  H    1.106267   2.050187   2.035962   2.960886   2.314270
                    6
     6  H    0.000000
 Stoichiometry    CH3NO
 Framework group  C1[X(CH3NO)]
 Deg. of freedom    12
 Full point group                 C1      NOp   1
 Largest Abelian subgroup         C1      NOp   1
 Largest concise Abelian subgroup C1      NOp   1
                         Standard orientation:                         
 ---------------------------------------------------------------------
 Center     Atomic      Atomic             Coordinates (Angstroms)
 Number     Number       Type             X           Y           Z
 ---------------------------------------------------------------------
      1          6           0       -0.161453    0.387024   -0.000100
      2          7           0        1.081733   -0.157452   -0.000076
      3          8           0       -1.194449   -0.245367    0.000068
      4          1           0        1.174611   -1.162764    0.000191
      5          1           0        1.912136    0.412757    0.000321
      6          1           0       -0.134568    1.492965    0.000079
 ---------------------------------------------------------------------
 Rotational constants (GHZ):     73.6451615     11.3730058      9.8516222
 Standard basis: 6-31G(d,p) (6D, 7F)
 There are    60 symmetry adapted basis functions of A   symmetry.
 Integral buffers will be    131072 words long.
 Raffenetti 2 integral format.
 Two-electron integral symmetry is turned on.
    60 basis functions,   105 primitive gaussians,    60 cartesian basis functions
    12 alpha electrons       12 beta electrons
       nuclear repulsion energy        71.2532654932 Hartrees.
 NAtoms=    6 NActive=    6 NUniq=    6 SFac= 7.50D-01 NAtFMM=   80 NAOKFM=F Big=F
 Standard density basis: Auto (5D, 7F)
   276 Density fitting functions
 There are   276 symmetry adapted density basis functions of A   symmetry.
 One-electron integrals computed using PRISM.
 NBasis=    60 RedAO= T  NBF=    60
 NBsUse=    60 1.00D-06 NBFU=    60
 NBasis=       60 NBas6D=       60 NTT=        1830   NTT6D=     1830
 NDBShl=       48 NDBF=        276 NDBF6D=      318  NNucDB=        0
 IDenFi=        2 ISolve=        0 FullAP=F BlkAPC=T NucTyp=        0
 TolInv= 1.00D-05 TolIt=  1.00D-10 IR12=0.
 Petite list used in FoFDir.
 MinBra= 0 MaxBra= 3 Meth= 1.
 IRaf=       0 NMat=   1 IRICut=       1 DoRegI=T DoRafI=F ISym2E= 1 JSym2E=1.
  NDBF=   276  NBFD=   276
 NRank=   276 NBFDU=   276
 S*AI*S=  5.04608465038    
 Harris functional with IExCor= 1009 diagonalized for initial guess.
 ExpMin= 1.61D-01 ExpMax= 5.48D+03 ExpMxC= 8.25D+02 IAcc=1 IRadAn=         1 AccDes= 0.00D+00
 HarFok:  IExCor= 1009 AccDes= 0.00D+00 IRadAn=         1 IDoV= 1
 ScaDFX=  1.000000  1.000000  1.000000  1.000000
 FoFCou: FMM=F IPFlag=           0 FMFlag=      100000 FMFlg1=           0
         NFxFlg=           0 DoJE=T BraDBF=F KetDBF=T FulRan=T
         Omega=  0.000000  0.000000  1.000000  0.000000  0.000000 ICntrl=     500 IOpCl=  0
         NMat0=    1 NMatS0=    1 NMatT0=    0 NMatD0=    1 NMtDS0=    0 NMtDT0=    0
         I1Cent=           4 NGrid=           0.
 Petite list used in FoFCou.
 Initial guess orbital symmetries:
       Occupied  (A) (A) (A) (A) (A) (A) (A) (A) (A) (A) (A) (A)
       Virtual   (A) (A) (A) (A) (A) (A) (A) (A) (A) (A) (A) (A)
                 (A) (A) (A) (A) (A) (A) (A) (A) (A) (A) (A) (A)
                 (A) (A) (A) (A) (A) (A) (A) (A) (A) (A) (A) (A)
                 (A) (A) (A) (A) (A) (A) (A) (A) (A) (A) (A) (A)
 The electronic state of the initial guess is 1-A.
 Requested convergence on RMS density matrix=1.00D-08 within 128 cycles.
 Requested convergence on MAX density matrix=1.00D-06.
 Requested convergence on             energy=1.00D-06.
 No special actions if energy rises.
 FoFCou: FMM=F IPFlag=           0 FMFlag=      100000 FMFlg1=           0
         NFxFlg=           0 DoJE=T BraDBF=T KetDBF=F FulRan=T
         Omega=  0.000000  0.000000  1.000000  0.000000  0.000000 ICntrl=     500 IOpCl=  0
         NMat0=    1 NMatS0=    1 NMatT0=    0 NMatD0=    1 NMtDS0=    0 NMtDT0=    0
         I1Cent=           5 NGrid=           0.
 Symmetry not used in FoFCou.
 Initial convergence to 1.0D-05 achieved.  Increase integral accuracy.
 SCF Done:  E(RPBE-PBE) =  -169.704443530     A.U. after   13 cycles
             Convg  =    0.6563D-08             -V/T =  2.0085

 **********************************************************************

            Population analysis using the SCF density.

 **********************************************************************

 Orbital symmetries:
       Occupied  (A) (A) (A) (A) (A) (A) (A) (A) (A) (A) (A) (A)
       Virtual   (A) (A) (A) (A) (A) (A) (A) (A) (A) (A) (A) (A)
                 (A) (A) (A) (A) (A) (A) (A) (A) (A) (A) (A) (A)
                 (A) (A) (A) (A) (A) (A) (A) (A) (A) (A) (A) (A)
                 (A) (A) (A) (A) (A) (A) (A) (A) (A) (A) (A) (A)
 The electronic state is 1-A.
 Alpha  occ. eigenvalues --  -18.73681 -14.03122  -9.98597  -0.94075  -0.82647
 Alpha  occ. eigenvalues --   -0.56201  -0.49983  -0.42107  -0.35213  -0.34999
 Alpha  occ. eigenvalues --   -0.22931  -0.20068
 Alpha virt. eigenvalues --   -0.00102   0.05189   0.08683   0.14139   0.24143
 Alpha virt. eigenvalues --    0.30655   0.50258   0.50885   0.60727   0.63141
 Alpha virt. eigenvalues --    0.64471   0.66921   0.78790   0.78940   0.79794
 Alpha virt. eigenvalues --    0.82356   0.94913   1.02589   1.16522   1.22709
 Alpha virt. eigenvalues --    1.26358   1.31626   1.43931   1.45287   1.69183
 Alpha virt. eigenvalues --    1.74941   1.77332   1.90410   1.93582   2.00449
 Alpha virt. eigenvalues --    2.04564   2.05907   2.19624   2.29069   2.41618
 Alpha virt. eigenvalues --    2.44407   2.53863   2.67222   2.67886   2.78218
 Alpha virt. eigenvalues --    2.91396   2.93855   3.16459   3.37103   3.56415
 Alpha virt. eigenvalues --    3.78238   3.87089   4.30044
          Condensed to atoms (all electrons):
              1          2          3          4          5          6
     1  C    4.450435   0.238020   0.609360  -0.005653  -0.003993   0.363736
     2  N    0.238020   6.920566  -0.091719   0.304286   0.306449  -0.131683
     3  O    0.609360  -0.091719   7.945281   0.008196   0.003808  -0.057871
     4  H   -0.005653   0.304286   0.008196   0.427056  -0.020368   0.008987
     5  H   -0.003993   0.306449   0.003808  -0.020368   0.437453   0.006898
     6  H    0.363736  -0.131683  -0.057871   0.008987   0.006898   0.742305
 Mulliken atomic charges:
              1
     1  C    0.348095
     2  N   -0.545919
     3  O   -0.417054
     4  H    0.277496
     5  H    0.269753
     6  H    0.067628
 Sum of Mulliken atomic charges =   0.00000
 Mulliken charges with hydrogens summed into heavy atoms:
              1
     1  C    0.415723
     2  N    0.001331
     3  O   -0.417054
 Sum of Mulliken charges with hydrogens summed into heavy atoms =   0.00000
 Electronic spatial extent (au):  <R**2>=            145.1306
 Charge=              0.0000 electrons
 Dipole moment (field-independent basis, Debye):
    X=              3.6408    Y=              0.5956    Z=              0.0008  Tot=              3.6892
 Quadrupole moment (field-independent basis, Debye-Ang):
   XX=            -17.0093   YY=            -15.1799   ZZ=            -18.3418
   XY=             -1.0509   XZ=              0.0020   YZ=             -0.0001
 Traceless Quadrupole moment (field-independent basis, Debye-Ang):
   XX=             -0.1656   YY=              1.6638   ZZ=             -1.4982
   XY=             -1.0509   XZ=              0.0020   YZ=             -0.0001
 Octapole moment (field-independent basis, Debye-Ang**2):
  XXX=             11.3261  YYY=             -2.9438  ZZZ=              0.0011  XYY=              2.5011
  XXY=              0.6905  XXZ=              0.0034  XZZ=             -1.4942  YZZ=             -0.4232
  YYZ=              0.0010  XYZ=             -0.0002
 Hexadecapole moment (field-independent basis, Debye-Ang**3):
 XXXX=           -104.0685 YYYY=            -33.6023 ZZZZ=            -15.4260 XXXY=              2.5841
 XXXZ=              0.0072 YYYX=             -2.8639 YYYZ=              0.0002 ZZZX=              0.0018
 ZZZY=              0.0004 XXYY=            -22.3102 XXZZ=            -23.1938 YYZZ=             -9.0633
 XXYZ=              0.0003 YYXZ=              0.0013 ZZXY=              0.3144
 N-N= 7.125326549323D+01 E-N=-5.402994470848D+02  KE= 1.682768485589D+02
 Calling FoFJK, ICntrl=      2527 FMM=F ISym2X=0 I1Cent= 4 IOpClX= 0 NMat=1 NMatS=1 NMatT=0.
 ***** Axes restored to original set *****
 -------------------------------------------------------------------
 Center     Atomic                   Forces (Hartrees/Bohr)
 Number     Number              X              Y              Z
 -------------------------------------------------------------------
      1        6           0.009846353    0.008286749    0.000046886
      2        7           0.004485133   -0.000727253   -0.000013847
      3        8          -0.022329395   -0.013635884   -0.000017134
      4        1           0.000509907   -0.006323213    0.000001094
      5        1           0.005548463    0.003836518   -0.000001105
      6        1           0.001939539    0.008563083   -0.000015894
 -------------------------------------------------------------------
 Cartesian Forces:  Max     0.022329395 RMS     0.007577906

 GradGradGradGradGradGradGradGradGradGradGradGradGradGradGradGradGradGrad
 Berny optimization.
 Internal  Forces:  Max     0.026165262 RMS     0.008051364
 Search for a local minimum.
 Step number   1 out of a maximum of   25
 All quantities printed in internal units (Hartrees-Bohrs-Radians)
 Mixed Optimization -- RFO/linear search
 Second derivative matrix not updated -- first step.
 The second derivative matrix:
                          R1        R2        R3        R4        R5
           R1           0.53519
           R2           0.00000   0.99392
           R3           0.00000   0.00000   0.32998
           R4           0.00000   0.00000   0.00000   0.46041
           R5           0.00000   0.00000   0.00000   0.00000   0.46423
           A1           0.00000   0.00000   0.00000   0.00000   0.00000
           A2           0.00000   0.00000   0.00000   0.00000   0.00000
           A3           0.00000   0.00000   0.00000   0.00000   0.00000
           A4           0.00000   0.00000   0.00000   0.00000   0.00000
           A5           0.00000   0.00000   0.00000   0.00000   0.00000
           A6           0.00000   0.00000   0.00000   0.00000   0.00000
           D1           0.00000   0.00000   0.00000   0.00000   0.00000
           D2           0.00000   0.00000   0.00000   0.00000   0.00000
           D3           0.00000   0.00000   0.00000   0.00000   0.00000
           D4           0.00000   0.00000   0.00000   0.00000   0.00000
                          A1        A2        A3        A4        A5
           A1           0.25000
           A2           0.00000   0.16000
           A3           0.00000   0.00000   0.16000
           A4           0.00000   0.00000   0.00000   0.16000
           A5           0.00000   0.00000   0.00000   0.00000   0.16000
           A6           0.00000   0.00000   0.00000   0.00000   0.00000
           D1           0.00000   0.00000   0.00000   0.00000   0.00000
           D2           0.00000   0.00000   0.00000   0.00000   0.00000
           D3           0.00000   0.00000   0.00000   0.00000   0.00000
           D4           0.00000   0.00000   0.00000   0.00000   0.00000
                          A6        D1        D2        D3        D4
           A6           0.16000
           D1           0.00000   0.02258
           D2           0.00000   0.00000   0.02258
           D3           0.00000   0.00000   0.00000   0.02258
           D4           0.00000   0.00000   0.00000   0.00000   0.02258
     Eigenvalues ---    0.02258   0.02258   0.02258   0.16000   0.16000
     Eigenvalues ---    0.16000   0.22000   0.32998   0.46041   0.46423
     Eigenvalues ---    0.53519   0.993921000.000001000.000001000.00000
 RFO step:  Lambda=-1.36692838D-03 EMin= 2.25806287D-02
 Linear search not attempted -- first point.
 Iteration  1 RMS(Cart)=  0.01498387 RMS(Int)=  0.00005836
 Iteration  2 RMS(Cart)=  0.00007894 RMS(Int)=  0.00000015
 Iteration  3 RMS(Cart)=  0.00000000 RMS(Int)=  0.00000015
 Variable       Old X    -DE/DX   Delta X   Delta X   Delta X     New X
                                 (Linear)    (Quad)   (Total)
    R1        2.56472   0.01094   0.00000   0.02039   0.02039   2.58511
    R2        2.28883   0.02617   0.00000   0.02629   0.02629   2.31512
    R3        2.09054   0.00861   0.00000   0.02599   0.02599   2.11653
    R4        1.90785   0.00634   0.00000   0.01373   0.01373   1.92159
    R5        1.90357   0.00675   0.00000   0.01449   0.01449   1.91806
    A1        2.17945   0.00109   0.00000   0.00493   0.00492   2.18438
    A2        1.95930  -0.00232   0.00000  -0.01347  -0.01347   1.94583
    A3        2.14444   0.00123   0.00000   0.00854   0.00854   2.15298
    A4        2.07573  -0.00003   0.00000  -0.00020  -0.00020   2.07553
    A5        2.12707  -0.00003   0.00000  -0.00018  -0.00018   2.12688
    A6        2.08039   0.00006   0.00000   0.00038   0.00038   2.08077
    D1       -0.00011  -0.00002   0.00000  -0.00073  -0.00073  -0.00084
    D2       -3.14096  -0.00002   0.00000  -0.00088  -0.00088   3.14135
    D3        3.14112   0.00002   0.00000   0.00077   0.00077  -3.14130
    D4        0.00027   0.00001   0.00000   0.00062   0.00062   0.00089
         Item               Value     Threshold  Converged?
 Maximum Force            0.026165     0.000450     NO 
 RMS     Force            0.008051     0.000300     NO 
 Maximum Displacement     0.037924     0.001800     NO 
 RMS     Displacement     0.014987     0.001200     NO 
 Predicted change in Energy=-6.851513D-04
 GradGradGradGradGradGradGradGradGradGradGradGradGradGradGradGradGradGrad

                          Input orientation:                          
 ---------------------------------------------------------------------
 Center     Atomic      Atomic             Coordinates (Angstroms)
 Number     Number       Type             X           Y           Z
 ---------------------------------------------------------------------
      1          6           0       -0.160490    0.388842    0.000326
      2          7           0        1.092388   -0.160409    0.000008
      3          8           0       -1.208714   -0.245286   -0.000135
      4          1           0        1.185373   -1.173009    0.000088
      5          1           0        1.929210    0.413998    0.000212
      6          1           0       -0.117799    1.508048   -0.000113
 ---------------------------------------------------------------------
                    Distance matrix (angstroms):
                    1          2          3          4          5
     1  C    0.000000
     2  N    1.367983   0.000000
     3  O    1.225109   2.302666   0.000000
     4  H    2.061729   1.016861   2.567552   0.000000
     5  H    2.089851   1.014995   3.206435   1.752679   0.000000
     6  H    1.120020   2.061140   2.065013   2.980994   2.321032
                    6
     6  H    0.000000
 Stoichiometry    CH3NO
 Framework group  C1[X(CH3NO)]
 Deg. of freedom    12
 Full point group                 C1      NOp   1
 Largest Abelian subgroup         C1      NOp   1
 Largest concise Abelian subgroup C1      NOp   1
                         Standard orientation:                         
 ---------------------------------------------------------------------
 Center     Atomic      Atomic             Coordinates (Angstroms)
 Number     Number       Type             X           Y           Z
 ---------------------------------------------------------------------
      1          6           0       -0.160914    0.388981    0.000279
      2          7           0        1.091924   -0.160358   -0.000039
      3          8           0       -1.209183   -0.245073   -0.000181
      4          1           0        1.184839   -1.172965    0.000041
      5          1           0        1.928787    0.413990    0.000165
      6          1           0       -0.118144    1.508184   -0.000160
 ---------------------------------------------------------------------
 Rotational constants (GHZ):     72.5835105     11.1342439      9.6534187
 Standard basis: 6-31G(d,p) (6D, 7F)
 There are    60 symmetry adapted basis functions of A   symmetry.
 Integral buffers will be    131072 words long.
 Raffenetti 2 integral format.
 Two-electron integral symmetry is turned on.
    60 basis functions,   105 primitive gaussians,    60 cartesian basis functions
    12 alpha electrons       12 beta electrons
       nuclear repulsion energy        70.5597503532 Hartrees.
 NAtoms=    6 NActive=    6 NUniq=    6 SFac= 7.50D-01 NAtFMM=   80 NAOKFM=F Big=F
 Standard density basis: Auto (5D, 7F)
   276 Density fitting functions
 There are   276 symmetry adapted density basis functions of A   symmetry.
 One-electron integrals computed using PRISM.
 NBasis=    60 RedAO= T  NBF=    60
 NBsUse=    60 1.00D-06 NBFU=    60
 NBasis=       60 NBas6D=       60 NTT=        1830   NTT6D=     1830
 NDBShl=       48 NDBF=        276 NDBF6D=      318  NNucDB=        0
 IDenFi=        2 ISolve=        0 FullAP=F BlkAPC=T NucTyp=        0
 TolInv= 1.00D-05 TolIt=  1.00D-10 IR12=0.
 Petite list used in FoFDir.
 MinBra= 0 MaxBra= 3 Meth= 1.
 IRaf=       0 NMat=   1 IRICut=       1 DoRegI=T DoRafI=F ISym2E= 1 JSym2E=1.
  NDBF=   276  NBFD=   276
 NRank=   276 NBFDU=   276
 S*AI*S=  5.04868065315    
 Initial guess read from the read-write file.
 B after Tr=     0.000000    0.000000    0.000000
         Rot=    1.000000    0.000000    0.000000    0.000000 Ang=   0.00 deg.
 Initial guess orbital symmetries:
       Occupied  (A) (A) (A) (A) (A) (A) (A) (A) (A) (A) (A) (A)
       Virtual   (A) (A) (A) (A) (A) (A) (A) (A) (A) (A) (A) (A)
                 (A) (A) (A) (A) (A) (A) (A) (A) (A) (A) (A) (A)
                 (A) (A) (A) (A) (A) (A) (A) (A) (A) (A) (A) (A)
                 (A) (A) (A) (A) (A) (A) (A) (A) (A) (A) (A) (A)
 Harris functional with IExCor= 1009 diagonalized for initial guess.
 ExpMin= 1.61D-01 ExpMax= 5.48D+03 ExpMxC= 8.25D+02 IAcc=1 IRadAn=         1 AccDes= 0.00D+00
 HarFok:  IExCor= 1009 AccDes= 0.00D+00 IRadAn=         1 IDoV= 1
 ScaDFX=  1.000000  1.000000  1.000000  1.000000
 FoFCou: FMM=F IPFlag=           0 FMFlag=      100000 FMFlg1=           0
         NFxFlg=           0 DoJE=T BraDBF=F KetDBF=T FulRan=T
         Omega=  0.000000  0.000000  1.000000  0.000000  0.000000 ICntrl=     500 IOpCl=  0
         NMat0=    1 NMatS0=    1 NMatT0=    0 NMatD0=    1 NMtDS0=    0 NMtDT0=    0
         I1Cent=           4 NGrid=           0.
 Petite list used in FoFCou.
 Requested convergence on RMS density matrix=1.00D-08 within 128 cycles.
 Requested convergence on MAX density matrix=1.00D-06.
 Requested convergence on             energy=1.00D-06.
 No special actions if energy rises.
 FoFCou: FMM=F IPFlag=           0 FMFlag=      100000 FMFlg1=           0
         NFxFlg=           0 DoJE=T BraDBF=T KetDBF=F FulRan=T
         Omega=  0.000000  0.000000  1.000000  0.000000  0.000000 ICntrl=     500 IOpCl=  0
         NMat0=    1 NMatS0=    1 NMatT0=    0 NMatD0=    1 NMtDS0=    0 NMtDT0=    0
         I1Cent=           5 NGrid=           0.
 Symmetry not used in FoFCou.
 EnCoef did     6 forward-backward iterations
 Initial convergence to 1.0D-05 achieved.  Increase integral accuracy.
 SCF Done:  E(RPBE-PBE) =  -169.705119109     A.U. after   11 cycles
             Convg  =    0.9694D-08             -V/T =  2.0092
 Calling FoFJK, ICntrl=      2527 FMM=F ISym2X=0 I1Cent= 4 IOpClX= 0 NMat=1 NMatS=1 NMatT=0.
 ***** Axes restored to original set *****
 -------------------------------------------------------------------
 Center     Atomic                   Forces (Hartrees/Bohr)
 Number     Number              X              Y              Z
 -------------------------------------------------------------------
      1        6           0.001127931    0.001598045   -0.000129216
      2        7          -0.000531574   -0.000620343    0.000028495
      3        8          -0.000429931   -0.000974752    0.000050206
      4        1           0.000031945   -0.000011465    0.000000137
      5        1          -0.000292511    0.000169225    0.000007309
      6        1           0.000094140   -0.000160710    0.000043069
 -------------------------------------------------------------------
 Cartesian Forces:  Max     0.001598045 RMS     0.000567663

 GradGradGradGradGradGradGradGradGradGradGradGradGradGradGradGradGradGrad
 Berny optimization.
 Using GEDIIS/GDIIS optimizer.
 Internal  Forces:  Max     0.000885046 RMS     0.000413995
 Search for a local minimum.
 Step number   2 out of a maximum of   25
 All quantities printed in internal units (Hartrees-Bohrs-Radians)
 Mixed Optimization -- En-DIIS/RFO-DIIS
 Update second derivatives using D2CorX and points    1    2
 DE= -6.76D-04 DEPred=-6.85D-04 R= 9.86D-01
 SS=  1.41D+00  RLast= 4.96D-02 DXNew= 5.0454D-01 1.4886D-01
 Trust test= 9.86D-01 RLast= 4.96D-02 DXMaxT set to 3.00D-01
 The second derivative matrix:
                          R1        R2        R3        R4        R5
           R1           0.54439
           R2           0.00354   0.96169
           R3           0.00511  -0.00187   0.33239
           R4           0.00262  -0.00392   0.00089   0.46043
           R5           0.00410  -0.00128   0.00195   0.00075   0.46581
           A1           0.00676   0.01300   0.00495   0.00345   0.00389
           A2          -0.00514  -0.00803  -0.00355  -0.00235  -0.00281
           A3          -0.00516  -0.01346  -0.00418  -0.00315  -0.00328
           A4          -0.00206  -0.00450  -0.00157  -0.00113  -0.00123
           A5           0.00351   0.00778   0.00269   0.00194   0.00211
           A6          -0.00145  -0.00328  -0.00112  -0.00081  -0.00088
           D1          -0.00039  -0.00084  -0.00030  -0.00021  -0.00023
           D2          -0.00045  -0.00095  -0.00034  -0.00024  -0.00027
           D3           0.00040   0.00085   0.00030   0.00021   0.00024
           D4           0.00034   0.00073   0.00026   0.00019   0.00020
                          A1        A2        A3        A4        A5
           A1           0.25175
           A2          -0.00191   0.16179
           A3          -0.00024   0.00082   0.15898
           A4          -0.00037   0.00049  -0.00011   0.16005
           A5           0.00059  -0.00081   0.00023  -0.00008   0.16011
           A6          -0.00022   0.00032  -0.00012   0.00002  -0.00003
           D1          -0.00008   0.00010  -0.00001   0.00001  -0.00002
           D2          -0.00009   0.00011  -0.00002   0.00001  -0.00002
           D3           0.00008  -0.00010   0.00001  -0.00001   0.00002
           D4           0.00007  -0.00008   0.00001  -0.00001   0.00002
                          A6        D1        D2        D3        D4
           A6           0.16001
           D1           0.00001   0.02258
           D2           0.00001   0.00000   0.02258
           D3          -0.00001   0.00000   0.00000   0.02258
           D4          -0.00001   0.00000   0.00000   0.00000   0.02258
 Use linear search instead of GDIIS.
     Eigenvalues ---    0.02258   0.02258   0.02259   0.15872   0.16000
     Eigenvalues ---    0.16067   0.22158   0.33272   0.46034   0.46585
     Eigenvalues ---    0.54517   0.962411000.000001000.000001000.00000
 RFO step:  Lambda=-8.94386763D-06 EMin= 2.25806289D-02
 Quartic linear search produced a step of  0.00120.
 Iteration  1 RMS(Cart)=  0.00187184 RMS(Int)=  0.00000418
 Iteration  2 RMS(Cart)=  0.00000388 RMS(Int)=  0.00000108
 Iteration  3 RMS(Cart)=  0.00000000 RMS(Int)=  0.00000108
 Variable       Old X    -DE/DX   Delta X   Delta X   Delta X     New X
                                 (Linear)    (Quad)   (Total)
    R1        2.58511  -0.00054   0.00002  -0.00090  -0.00087   2.58424
    R2        2.31512   0.00087   0.00003   0.00102   0.00105   2.31617
    R3        2.11653  -0.00016   0.00003  -0.00034  -0.00031   2.11622
    R4        1.92159   0.00001   0.00002   0.00010   0.00012   1.92171
    R5        1.91806  -0.00014   0.00002  -0.00023  -0.00021   1.91785
    A1        2.18438  -0.00089   0.00001  -0.00400  -0.00400   2.18038
    A2        1.94583   0.00034  -0.00002   0.00131   0.00129   1.94712
    A3        2.15298   0.00054   0.00001   0.00269   0.00270   2.15568
    A4        2.07553   0.00024   0.00000   0.00152   0.00152   2.07705
    A5        2.12688  -0.00042   0.00000  -0.00262  -0.00262   2.12426
    A6        2.08077   0.00018   0.00000   0.00110   0.00110   2.08187
    D1       -0.00084   0.00004   0.00000   0.00198   0.00198   0.00114
    D2        3.14135   0.00005   0.00000   0.00225   0.00225  -3.13958
    D3       -3.14130  -0.00005   0.00000  -0.00200  -0.00200   3.13989
    D4        0.00089  -0.00004   0.00000  -0.00173  -0.00173  -0.00084
         Item               Value     Threshold  Converged?
 Maximum Force            0.000885     0.000450     NO 
 RMS     Force            0.000414     0.000300     NO 
 Maximum Displacement     0.003147     0.001800     NO 
 RMS     Displacement     0.001874     0.001200     NO 
 Predicted change in Energy=-4.472520D-06
 GradGradGradGradGradGradGradGradGradGradGradGradGradGradGradGradGradGrad

                          Input orientation:                          
 ---------------------------------------------------------------------
 Center     Atomic      Atomic             Coordinates (Angstroms)
 Number     Number       Type             X           Y           Z
 ---------------------------------------------------------------------
      1          6           0       -0.159967    0.390070   -0.000849
      2          7           0        1.091656   -0.160884   -0.000232
      3          8           0       -1.207087   -0.246952    0.000350
      4          1           0        1.184661   -1.173545    0.000317
      5          1           0        1.927746    0.414391    0.000442
      6          1           0       -0.117039    1.509103    0.000358
 ---------------------------------------------------------------------
                    Distance matrix (angstroms):
                    1          2          3          4          5
     1  C    0.000000
     2  N    1.367521   0.000000
     3  O    1.225667   2.300355   0.000000
     4  H    2.062261   1.016923   2.564963   0.000000
     5  H    2.087855   1.014883   3.203834   1.753201   0.000000
     6  H    1.119856   2.061504   2.066866   2.981781   2.319383
                    6
     6  H    0.000000
 Stoichiometry    CH3NO
 Framework group  C1[X(CH3NO)]
 Deg. of freedom    12
 Full point group                 C1      NOp   1
 Largest Abelian subgroup         C1      NOp   1
 Largest concise Abelian subgroup C1      NOp   1
                         Standard orientation:                         
 ---------------------------------------------------------------------
 Center     Atomic      Atomic             Coordinates (Angstroms)
 Number     Number       Type             X           Y           Z
 ---------------------------------------------------------------------
      1          6           0       -0.160566    0.390651   -0.000603
      2          7           0        1.090699   -0.161116   -0.000041
      3          8           0       -1.208100   -0.245691    0.000222
      4          1           0        1.183047   -1.173837    0.000132
      5          1           0        1.927162    0.413615    0.000957
      6          1           0       -0.116911    1.509655    0.001037
 ---------------------------------------------------------------------
 Rotational constants (GHZ):     72.2708915     11.1566767      9.6647090
 Standard basis: 6-31G(d,p) (6D, 7F)
 There are    60 symmetry adapted basis functions of A   symmetry.
 Integral buffers will be    131072 words long.
 Raffenetti 2 integral format.
 Two-electron integral symmetry is turned on.
    60 basis functions,   105 primitive gaussians,    60 cartesian basis functions
    12 alpha electrons       12 beta electrons
       nuclear repulsion energy        70.5710013519 Hartrees.
 NAtoms=    6 NActive=    6 NUniq=    6 SFac= 7.50D-01 NAtFMM=   80 NAOKFM=F Big=F
 Standard density basis: Auto (5D, 7F)
   276 Density fitting functions
 There are   276 symmetry adapted density basis functions of A   symmetry.
 One-electron integrals computed using PRISM.
 NBasis=    60 RedAO= T  NBF=    60
 NBsUse=    60 1.00D-06 NBFU=    60
 NBasis=       60 NBas6D=       60 NTT=        1830   NTT6D=     1830
 NDBShl=       48 NDBF=        276 NDBF6D=      318  NNucDB=        0
 IDenFi=        2 ISolve=        0 FullAP=F BlkAPC=T NucTyp=        0
 TolInv= 1.00D-05 TolIt=  1.00D-10 IR12=0.
 Petite list used in FoFDir.
 MinBra= 0 MaxBra= 3 Meth= 1.
 IRaf=       0 NMat=   1 IRICut=       1 DoRegI=T DoRafI=F ISym2E= 1 JSym2E=1.
  NDBF=   276  NBFD=   276
 NRank=   276 NBFDU=   276
 S*AI*S=  5.04841850123    
 Initial guess read from the read-write file.
 B after Tr=     0.000000    0.000000    0.000000
         Rot=    1.000000    0.000000    0.000000    0.000000 Ang=   0.00 deg.
 Initial guess orbital symmetries:
       Occupied  (A) (A) (A) (A) (A) (A) (A) (A) (A) (A) (A) (A)
       Virtual   (A) (A) (A) (A) (A) (A) (A) (A) (A) (A) (A) (A)
                 (A) (A) (A) (A) (A) (A) (A) (A) (A) (A) (A) (A)
                 (A) (A) (A) (A) (A) (A) (A) (A) (A) (A) (A) (A)
                 (A) (A) (A) (A) (A) (A) (A) (A) (A) (A) (A) (A)
 Requested convergence on RMS density matrix=1.00D-08 within 128 cycles.
 Requested convergence on MAX density matrix=1.00D-06.
 Requested convergence on             energy=1.00D-06.
 No special actions if energy rises.
 FoFCou: FMM=F IPFlag=           0 FMFlag=      100000 FMFlg1=           0
         NFxFlg=           0 DoJE=T BraDBF=T KetDBF=F FulRan=T
         Omega=  0.000000  0.000000  1.000000  0.000000  0.000000 ICntrl=     500 IOpCl=  0
         NMat0=    1 NMatS0=    1 NMatT0=    0 NMatD0=    1 NMtDS0=    0 NMtDT0=    0
         I1Cent=           5 NGrid=           0.
 Symmetry not used in FoFCou.
 SCF Done:  E(RPBE-PBE) =  -169.705122894     A.U. after    9 cycles
             Convg  =    0.1301D-08             -V/T =  2.0092
 Calling FoFJK, ICntrl=      2527 FMM=F ISym2X=0 I1Cent= 4 IOpClX= 0 NMat=1 NMatS=1 NMatT=0.
 ***** Axes restored to original set *****
 -------------------------------------------------------------------
 Center     Atomic                   Forces (Hartrees/Bohr)
 Number     Number              X              Y              Z
 -------------------------------------------------------------------
      1        6           0.000327358    0.000107438    0.000347590
      2        7           0.000044179   -0.000059975   -0.000074336
      3        8          -0.000270476   -0.000040292   -0.000136024
      4        1          -0.000074977    0.000113211   -0.000001296
      5        1           0.000000344    0.000041295   -0.000020601
      6        1          -0.000026429   -0.000161677   -0.000115334
 -------------------------------------------------------------------
 Cartesian Forces:  Max     0.000347590 RMS     0.000149925

 GradGradGradGradGradGradGradGradGradGradGradGradGradGradGradGradGradGrad
 Berny optimization.
 Using GEDIIS/GDIIS optimizer.
 Internal  Forces:  Max     0.000253804 RMS     0.000117634
 Search for a local minimum.
 Step number   3 out of a maximum of   25
 All quantities printed in internal units (Hartrees-Bohrs-Radians)
 Mixed Optimization -- En-DIIS/RFO-DIIS
 Swaping is turned off.
 Update second derivatives using D2CorX and points    1    2    3
 DE= -3.79D-06 DEPred=-4.47D-06 R= 8.46D-01
 SS=  1.41D+00  RLast= 7.31D-03 DXNew= 5.0454D-01 2.1917D-02
 Trust test= 8.46D-01 RLast= 7.31D-03 DXMaxT set to 3.00D-01
 The second derivative matrix:
                          R1        R2        R3        R4        R5
           R1           0.53598
           R2           0.02727   0.89841
           R3          -0.00216   0.01472   0.33199
           R4          -0.00105   0.00307   0.00281   0.46322
           R5           0.00388   0.00048   0.00023  -0.00067   0.46622
           A1          -0.00583   0.05241  -0.01220  -0.00744   0.00516
           A2          -0.00854  -0.00357   0.00103   0.00265  -0.00487
           A3          -0.00746  -0.01425   0.00469   0.00521  -0.00617
           A4          -0.00076  -0.01041   0.00294   0.00235  -0.00208
           A5          -0.00245   0.02573  -0.00438  -0.00231   0.00244
           A6           0.00321  -0.01532   0.00144  -0.00005  -0.00036
           D1          -0.00426   0.00668   0.00132   0.00237  -0.00163
           D2          -0.00489   0.00770   0.00150   0.00272  -0.00187
           D3           0.00433  -0.00681  -0.00133  -0.00241   0.00166
           D4           0.00370  -0.00579  -0.00114  -0.00206   0.00142
                          A1        A2        A3        A4        A5
           A1           0.23960
           A2          -0.01494   0.17003
           A3          -0.01519   0.01376   0.17837
           A4          -0.00200   0.00532   0.00648   0.16179
           A5          -0.00628  -0.00563  -0.00491  -0.00025   0.15652
           A6           0.00828   0.00031  -0.00156  -0.00154   0.00373
           D1          -0.01109   0.00487   0.00806   0.00345  -0.00435
           D2          -0.01274   0.00558   0.00925   0.00396  -0.00500
           D3           0.01128  -0.00494  -0.00819  -0.00351   0.00442
           D4           0.00963  -0.00423  -0.00700  -0.00300   0.00378
                          A6        D1        D2        D3        D4
           A6           0.15781
           D1           0.00090   0.02498
           D2           0.00104   0.00275   0.02573
           D3          -0.00092  -0.00243  -0.00279   0.02505
           D4          -0.00078  -0.00209  -0.00239   0.00211   0.02439
     Eigenvalues ---    0.02258   0.02258   0.02657   0.15204   0.16014
     Eigenvalues ---    0.16243   0.24151   0.33378   0.46342   0.46680
     Eigenvalues ---    0.53452   0.906051000.000001000.000001000.00000
 En-DIIS/RFO-DIIS IScMMF=        0 using points:     3    2
 RFO step:  Lambda=-5.39816011D-07.
 DIIS coeffs:      0.85953      0.14047
 Iteration  1 RMS(Cart)=  0.00148251 RMS(Int)=  0.00000621
 Iteration  2 RMS(Cart)=  0.00000458 RMS(Int)=  0.00000459
 Iteration  3 RMS(Cart)=  0.00000000 RMS(Int)=  0.00000459
 Variable       Old X    -DE/DX   Delta X   Delta X   Delta X     New X
                                  (DIIS)     (GDIIS)  (Total)
    R1        2.58424  -0.00007   0.00012  -0.00041  -0.00029   2.58395
    R2        2.31617   0.00025  -0.00015   0.00063   0.00048   2.31666
    R3        2.11622  -0.00016   0.00004  -0.00052  -0.00048   2.11574
    R4        1.92171  -0.00012  -0.00002  -0.00017  -0.00019   1.92152
    R5        1.91785   0.00003   0.00003  -0.00002   0.00001   1.91786
    A1        2.18038   0.00014   0.00056  -0.00093  -0.00038   2.18001
    A2        1.94712  -0.00004  -0.00018   0.00035   0.00016   1.94728
    A3        2.15568  -0.00010  -0.00038   0.00060   0.00021   2.15589
    A4        2.07705  -0.00005  -0.00021   0.00028   0.00007   2.07712
    A5        2.12426  -0.00001   0.00037  -0.00103  -0.00066   2.12360
    A6        2.08187   0.00006  -0.00015   0.00074   0.00059   2.08246
    D1        0.00114  -0.00012  -0.00028  -0.00386  -0.00413  -0.00299
    D2       -3.13958  -0.00014  -0.00032  -0.00444  -0.00475   3.13885
    D3        3.13989   0.00012   0.00028   0.00392   0.00421  -3.13909
    D4       -0.00084   0.00010   0.00024   0.00335   0.00359   0.00275
         Item               Value     Threshold  Converged?
 Maximum Force            0.000254     0.000450     YES
 RMS     Force            0.000118     0.000300     YES
 Maximum Displacement     0.004657     0.001800     NO 
 RMS     Displacement     0.001483     0.001200     NO 
 Predicted change in Energy=-1.125525D-06
 GradGradGradGradGradGradGradGradGradGradGradGradGradGradGradGradGradGrad

                          Input orientation:                          
 ---------------------------------------------------------------------
 Center     Atomic      Atomic             Coordinates (Angstroms)
 Number     Number       Type             X           Y           Z
 ---------------------------------------------------------------------
      1          6           0       -0.159757    0.390195    0.001616
      2          7           0        1.091603   -0.160977    0.000284
      3          8           0       -1.206999   -0.247116   -0.000672
      4          1           0        1.184444   -1.173553   -0.000162
      5          1           0        1.927445    0.414666   -0.000051
      6          1           0       -0.116765    1.508969   -0.000628
 ---------------------------------------------------------------------
                    Distance matrix (angstroms):
                    1          2          3          4          5
     1  C    0.000000
     2  N    1.367367   0.000000
     3  O    1.225922   2.300215   0.000000
     4  H    2.062083   1.016822   2.564621   0.000000
     5  H    2.087347   1.014888   3.203544   1.753422   0.000000
     6  H    1.119602   2.061280   2.066988   2.981454   2.318684
                    6
     6  H    0.000000
 Stoichiometry    CH3NO
 Framework group  C1[X(CH3NO)]
 Deg. of freedom    12
 Full point group                 C1      NOp   1
 Largest Abelian subgroup         C1      NOp   1
 Largest concise Abelian subgroup C1      NOp   1
                         Standard orientation:                         
 ---------------------------------------------------------------------
 Center     Atomic      Atomic             Coordinates (Angstroms)
 Number     Number       Type             X           Y           Z
 ---------------------------------------------------------------------
      1          6           0        0.160368    0.390839   -0.001142
      2          7           0       -1.090571   -0.161286    0.000121
      3          8           0        1.208095   -0.245675    0.000388
      4          1           0       -1.182642   -1.173931   -0.000158
      5          1           0       -1.926852    0.413720    0.001111
      6          1           0        0.116526    1.509578    0.001943
 ---------------------------------------------------------------------
 Rotational constants (GHZ):     72.2447048     11.1584263      9.6655588
 Standard basis: 6-31G(d,p) (6D, 7F)
 There are    60 symmetry adapted basis functions of A   symmetry.
 Integral buffers will be    131072 words long.
 Raffenetti 2 integral format.
 Two-electron integral symmetry is turned on.
    60 basis functions,   105 primitive gaussians,    60 cartesian basis functions
    12 alpha electrons       12 beta electrons
       nuclear repulsion energy        70.5712485297 Hartrees.
 NAtoms=    6 NActive=    6 NUniq=    6 SFac= 7.50D-01 NAtFMM=   80 NAOKFM=F Big=F
 Standard density basis: Auto (5D, 7F)
   276 Density fitting functions
 There are   276 symmetry adapted density basis functions of A   symmetry.
 One-electron integrals computed using PRISM.
 NBasis=    60 RedAO= T  NBF=    60
 NBsUse=    60 1.00D-06 NBFU=    60
 NBasis=       60 NBas6D=       60 NTT=        1830   NTT6D=     1830
 NDBShl=       48 NDBF=        276 NDBF6D=      318  NNucDB=        0
 IDenFi=        2 ISolve=        0 FullAP=F BlkAPC=T NucTyp=        0
 TolInv= 1.00D-05 TolIt=  1.00D-10 IR12=0.
 Petite list used in FoFDir.
 MinBra= 0 MaxBra= 3 Meth= 1.
 IRaf=       0 NMat=   1 IRICut=       1 DoRegI=T DoRafI=F ISym2E= 1 JSym2E=1.
  NDBF=   276  NBFD=   276
 NRank=   276 NBFDU=   276
 S*AI*S=  5.04836932807    
 Initial guess read from the read-write file.
 B after Tr=     0.000000    0.000000    0.000000
         Rot=    1.000000    0.000000    0.000000    0.000000 Ang=   0.00 deg.
 Initial guess orbital symmetries:
       Occupied  (A) (A) (A) (A) (A) (A) (A) (A) (A) (A) (A) (A)
       Virtual   (A) (A) (A) (A) (A) (A) (A) (A) (A) (A) (A) (A)
                 (A) (A) (A) (A) (A) (A) (A) (A) (A) (A) (A) (A)
                 (A) (A) (A) (A) (A) (A) (A) (A) (A) (A) (A) (A)
                 (A) (A) (A) (A) (A) (A) (A) (A) (A) (A) (A) (A)
 Requested convergence on RMS density matrix=1.00D-08 within 128 cycles.
 Requested convergence on MAX density matrix=1.00D-06.
 Requested convergence on             energy=1.00D-06.
 No special actions if energy rises.
 FoFCou: FMM=F IPFlag=           0 FMFlag=      100000 FMFlg1=           0
         NFxFlg=           0 DoJE=T BraDBF=T KetDBF=F FulRan=T
         Omega=  0.000000  0.000000  1.000000  0.000000  0.000000 ICntrl=     500 IOpCl=  0
         NMat0=    1 NMatS0=    1 NMatT0=    0 NMatD0=    1 NMtDS0=    0 NMtDT0=    0
         I1Cent=           5 NGrid=           0.
 Symmetry not used in FoFCou.
 SCF Done:  E(RPBE-PBE) =  -169.705122008     A.U. after   14 cycles
             Convg  =    0.6452D-08             -V/T =  2.0092
 Calling FoFJK, ICntrl=      2527 FMM=F ISym2X=0 I1Cent= 4 IOpClX= 0 NMat=1 NMatS=1 NMatT=0.
 ***** Axes restored to original set *****
 -------------------------------------------------------------------
 Center     Atomic                   Forces (Hartrees/Bohr)
 Number     Number              X              Y              Z
 -------------------------------------------------------------------
      1        6          -0.000050959   -0.000265823   -0.000652914
      2        7           0.000119942    0.000096676    0.000141614
      3        8          -0.000021754    0.000187103    0.000255650
      4        1          -0.000046277    0.000039832    0.000001620
      5        1           0.000043129   -0.000020250    0.000037806
      6        1          -0.000044081   -0.000037538    0.000216222
 -------------------------------------------------------------------
 Cartesian Forces:  Max     0.000652914 RMS     0.000197444

 GradGradGradGradGradGradGradGradGradGradGradGradGradGradGradGradGradGrad
 Berny optimization.
 Using GEDIIS/GDIIS optimizer.
 Internal  Forces:  Max     0.000258773 RMS     0.000144528
 Search for a local minimum.
 Step number   4 out of a maximum of   25
 All quantities printed in internal units (Hartrees-Bohrs-Radians)
 Mixed Optimization -- En-DIIS/RFO-DIIS
 Swaping is turned off.
 Update second derivatives using D2CorX and points    1    2    3    4
 DE=  8.86D-07 DEPred=-1.13D-06 R=-7.87D-01
 Trust test=-7.87D-01 RLast= 8.47D-03 DXMaxT set to 1.50D-01
 The second derivative matrix:
                          R1        R2        R3        R4        R5
           R1           0.52774
           R2           0.05600   0.79644
           R3          -0.01088   0.03582   0.32540
           R4          -0.00553   0.01074  -0.00023   0.46179
           R5           0.00444  -0.00009  -0.00059  -0.00148   0.46657
           A1          -0.01099   0.08113  -0.02115  -0.01252   0.00718
           A2          -0.00765  -0.01940   0.00331   0.00365  -0.00651
           A3          -0.00763  -0.03465   0.00804   0.00700  -0.00896
           A4          -0.00057  -0.01718   0.00466   0.00340  -0.00298
           A5          -0.00835   0.05052  -0.01045  -0.00514   0.00325
           A6           0.00892  -0.03334   0.00578   0.00173  -0.00027
           D1           0.00111  -0.00467   0.00048   0.00038  -0.00021
           D2           0.00121  -0.00519   0.00053   0.00043  -0.00025
           D3          -0.00108   0.00461  -0.00047  -0.00038   0.00022
           D4          -0.00098   0.00409  -0.00043  -0.00033   0.00018
                          A1        A2        A3        A4        A5
           A1           0.24252
           A2          -0.01499   0.17028
           A3          -0.01934   0.01462   0.18168
           A4          -0.00406   0.00581   0.00828   0.16267
           A5          -0.00994  -0.00377  -0.00361   0.00008   0.15164
           A6           0.01401  -0.00204  -0.00468  -0.00275   0.00828
           D1           0.00344   0.00054  -0.00226  -0.00101   0.00130
           D2           0.00383   0.00065  -0.00253  -0.00113   0.00144
           D3          -0.00340  -0.00058   0.00224   0.00100  -0.00128
           D4          -0.00301  -0.00047   0.00197   0.00088  -0.00114
                          A6        D1        D2        D3        D4
           A6           0.15446
           D1          -0.00029   0.03722
           D2          -0.00031   0.01673   0.04171
           D3           0.00028  -0.01481  -0.01693   0.03757
           D4           0.00026  -0.01272  -0.01454   0.01287   0.03363
     Eigenvalues ---    0.02258   0.02258   0.08111   0.13156   0.16022
     Eigenvalues ---    0.16333   0.23313   0.33116   0.46153   0.46781
     Eigenvalues ---    0.52116   0.827561000.000001000.000001000.00000
 En-DIIS/RFO-DIIS IScMMF=        0 using points:     4    3    2
 RFO step:  Lambda=-9.19211800D-07.
 DIIS coeffs:      0.34127      0.58731      0.07142
 Iteration  1 RMS(Cart)=  0.00100150 RMS(Int)=  0.00000204
 Iteration  2 RMS(Cart)=  0.00000201 RMS(Int)=  0.00000085
 Iteration  3 RMS(Cart)=  0.00000000 RMS(Int)=  0.00000085
 Variable       Old X    -DE/DX   Delta X   Delta X   Delta X     New X
                                  (DIIS)     (GDIIS)  (Total)
    R1        2.58395   0.00006   0.00025  -0.00016   0.00010   2.58405
    R2        2.31666  -0.00008  -0.00039   0.00026  -0.00013   2.31653
    R3        2.11574  -0.00004   0.00034  -0.00040  -0.00006   2.11568
    R4        1.92152  -0.00005   0.00012  -0.00019  -0.00007   1.92144
    R5        1.91786   0.00003   0.00001   0.00002   0.00003   1.91789
    A1        2.18001   0.00022   0.00053   0.00023   0.00076   2.18077
    A2        1.94728  -0.00006  -0.00019   0.00001  -0.00018   1.94709
    A3        2.15589  -0.00016  -0.00033  -0.00024  -0.00056   2.15532
    A4        2.07712  -0.00007  -0.00016  -0.00016  -0.00031   2.07681
    A5        2.12360   0.00007   0.00062  -0.00023   0.00039   2.12400
    A6        2.08246   0.00000  -0.00047   0.00039  -0.00008   2.08238
    D1       -0.00299   0.00023   0.00258   0.00013   0.00271  -0.00028
    D2        3.13885   0.00026   0.00297   0.00013   0.00310  -3.14123
    D3       -3.13909  -0.00023  -0.00263  -0.00012  -0.00274   3.14135
    D4        0.00275  -0.00020  -0.00224  -0.00012  -0.00236   0.00039
         Item               Value     Threshold  Converged?
 Maximum Force            0.000259     0.000450     YES
 RMS     Force            0.000145     0.000300     YES
 Maximum Displacement     0.003047     0.001800     NO 
 RMS     Displacement     0.001001     0.001200     YES
 Predicted change in Energy=-1.425642D-06
 GradGradGradGradGradGradGradGradGradGradGradGradGradGradGradGradGradGrad

                          Input orientation:                          
 ---------------------------------------------------------------------
 Center     Atomic      Atomic             Coordinates (Angstroms)
 Number     Number       Type             X           Y           Z
 ---------------------------------------------------------------------
      1          6           0       -0.159801    0.389966    0.000003
      2          7           0        1.091750   -0.160901   -0.000049
      3          8           0       -1.207301   -0.246789   -0.000004
      4          1           0        1.184533   -1.173444    0.000150
      5          1           0        1.927683    0.414640    0.000269
      6          1           0       -0.116894    1.508711    0.000017
 ---------------------------------------------------------------------
                    Distance matrix (angstroms):
                    1          2          3          4          5
     1  C    0.000000
     2  N    1.367419   0.000000
     3  O    1.225852   2.300655   0.000000
     4  H    2.061913   1.016784   2.565065   0.000000
     5  H    2.087630   1.014905   3.204000   1.753362   0.000000
     6  H    1.119568   2.061171   2.066584   2.981219   2.318898
                    6
     6  H    0.000000
 Stoichiometry    CH3NO
 Framework group  C1[X(CH3NO)]
 Deg. of freedom    12
 Full point group                 C1      NOp   1
 Largest Abelian subgroup         C1      NOp   1
 Largest concise Abelian subgroup C1      NOp   1
                         Standard orientation:                         
 ---------------------------------------------------------------------
 Center     Atomic      Atomic             Coordinates (Angstroms)
 Number     Number       Type             X           Y           Z
 ---------------------------------------------------------------------
      1          6           0       -0.160394    0.390526    0.000000
      2          7           0        1.090797   -0.161160   -0.000052
      3          8           0       -1.208310   -0.245544   -0.000007
      4          1           0        1.182918   -1.173762    0.000146
      5          1           0        1.927106    0.413835    0.000266
      6          1           0       -0.116755    1.509243    0.000014
 ---------------------------------------------------------------------
 Rotational constants (GHZ):     72.3054923     11.1542533      9.6635063
 Standard basis: 6-31G(d,p) (6D, 7F)
 There are    60 symmetry adapted basis functions of A   symmetry.
 Integral buffers will be    131072 words long.
 Raffenetti 2 integral format.
 Two-electron integral symmetry is turned on.
    60 basis functions,   105 primitive gaussians,    60 cartesian basis functions
    12 alpha electrons       12 beta electrons
       nuclear repulsion energy        70.5694509419 Hartrees.
 NAtoms=    6 NActive=    6 NUniq=    6 SFac= 7.50D-01 NAtFMM=   80 NAOKFM=F Big=F
 Standard density basis: Auto (5D, 7F)
   276 Density fitting functions
 There are   276 symmetry adapted density basis functions of A   symmetry.
 One-electron integrals computed using PRISM.
 NBasis=    60 RedAO= T  NBF=    60
 NBsUse=    60 1.00D-06 NBFU=    60
 NBasis=       60 NBas6D=       60 NTT=        1830   NTT6D=     1830
 NDBShl=       48 NDBF=        276 NDBF6D=      318  NNucDB=        0
 IDenFi=        2 ISolve=        0 FullAP=F BlkAPC=T NucTyp=        0
 TolInv= 1.00D-05 TolIt=  1.00D-10 IR12=0.
 Petite list used in FoFDir.
 MinBra= 0 MaxBra= 3 Meth= 1.
 IRaf=       0 NMat=   1 IRICut=       1 DoRegI=T DoRafI=F ISym2E= 1 JSym2E=1.
  NDBF=   276  NBFD=   276
 NRank=   276 NBFDU=   276
 S*AI*S=  5.04841583081    
 Initial guess read from the read-write file.
 B after Tr=     0.000000    0.000000    0.000000
         Rot=    1.000000    0.000000    0.000000    0.000000 Ang=   0.00 deg.
 Initial guess orbital symmetries:
       Occupied  (A) (A) (A) (A) (A) (A) (A) (A) (A) (A) (A) (A)
       Virtual   (A) (A) (A) (A) (A) (A) (A) (A) (A) (A) (A) (A)
                 (A) (A) (A) (A) (A) (A) (A) (A) (A) (A) (A) (A)
                 (A) (A) (A) (A) (A) (A) (A) (A) (A) (A) (A) (A)
                 (A) (A) (A) (A) (A) (A) (A) (A) (A) (A) (A) (A)
 Requested convergence on RMS density matrix=1.00D-08 within 128 cycles.
 Requested convergence on MAX density matrix=1.00D-06.
 Requested convergence on             energy=1.00D-06.
 No special actions if energy rises.
 FoFCou: FMM=F IPFlag=           0 FMFlag=      100000 FMFlg1=           0
         NFxFlg=           0 DoJE=T BraDBF=T KetDBF=F FulRan=T
         Omega=  0.000000  0.000000  1.000000  0.000000  0.000000 ICntrl=     500 IOpCl=  0
         NMat0=    1 NMatS0=    1 NMatT0=    0 NMatD0=    1 NMtDS0=    0 NMtDT0=    0
         I1Cent=           5 NGrid=           0.
 Symmetry not used in FoFCou.
 SCF Done:  E(RPBE-PBE) =  -169.705123446     A.U. after   14 cycles
             Convg  =    0.6446D-08             -V/T =  2.0092
 Calling FoFJK, ICntrl=      2527 FMM=F ISym2X=0 I1Cent= 4 IOpClX= 0 NMat=1 NMatS=1 NMatT=0.
 ***** Axes restored to original set *****
 -------------------------------------------------------------------
 Center     Atomic                   Forces (Hartrees/Bohr)
 Number     Number              X              Y              Z
 -------------------------------------------------------------------
      1        6           0.000028582   -0.000030524    0.000001908
      2        7           0.000016619    0.000013164    0.000000202
      3        8          -0.000011194    0.000030575   -0.000000863
      4        1          -0.000016095   -0.000004548   -0.000000211
      5        1          -0.000002184   -0.000004710   -0.000000397
      6        1          -0.000015730   -0.000003958   -0.000000639
 -------------------------------------------------------------------
 Cartesian Forces:  Max     0.000030575 RMS     0.000014593

 GradGradGradGradGradGradGradGradGradGradGradGradGradGradGradGradGradGrad
 Berny optimization.
 Using GEDIIS/GDIIS optimizer.
 Internal  Forces:  Max     0.000034649 RMS     0.000012448
 Search for a local minimum.
 Step number   5 out of a maximum of   25
 All quantities printed in internal units (Hartrees-Bohrs-Radians)
 Mixed Optimization -- En-DIIS/RFO-DIIS
 Swaping is turned off.
 Update second derivatives using D2CorX and points    1    2    3    4    5
 DE= -1.44D-06 DEPred=-1.43D-06 R= 1.01D+00
 SS=  1.41D+00  RLast= 5.59D-03 DXNew= 2.5227D-01 1.6785D-02
 Trust test= 1.01D+00 RLast= 5.59D-03 DXMaxT set to 1.50D-01
 The second derivative matrix:
                          R1        R2        R3        R4        R5
           R1           0.52999
           R2           0.03823   0.88228
           R3          -0.01302   0.03063   0.31927
           R4          -0.00821   0.01159  -0.00411   0.45991
           R5           0.00388   0.00194  -0.00144  -0.00225   0.46672
           A1           0.00202   0.03316  -0.00773  -0.00690   0.00633
           A2          -0.00985  -0.01326   0.00481   0.00593  -0.00726
           A3          -0.01651  -0.00428  -0.00202   0.00217  -0.00845
           A4          -0.00455  -0.00352  -0.00020   0.00102  -0.00271
           A5          -0.00320   0.02754  -0.00794  -0.00496   0.00283
           A6           0.00775  -0.02402   0.00814   0.00394  -0.00012
           D1           0.00027  -0.00029   0.00003  -0.00011   0.00005
           D2           0.00022  -0.00008  -0.00008  -0.00019   0.00006
           D3          -0.00020   0.00010   0.00006   0.00016  -0.00005
           D4          -0.00025   0.00030  -0.00005   0.00008  -0.00004
                          A1        A2        A3        A4        A5
           A1           0.24445
           A2          -0.02246   0.17330
           A3          -0.01914   0.01876   0.18042
           A4          -0.00282   0.00780   0.00699   0.16170
           A5          -0.00067  -0.00663  -0.00928  -0.00227   0.15734
           A6           0.00349  -0.00117   0.00229   0.00057   0.00493
           D1          -0.00009  -0.00037   0.00006   0.00014   0.00008
           D2          -0.00008  -0.00041   0.00005   0.00015   0.00004
           D3           0.00007   0.00036  -0.00005  -0.00013  -0.00004
           D4           0.00009   0.00033  -0.00006  -0.00013  -0.00007
                          A6        D1        D2        D3        D4
           A6           0.15450
           D1          -0.00022   0.03752
           D2          -0.00019   0.01711   0.04217
           D3           0.00017  -0.01515  -0.01734   0.03793
           D4           0.00020  -0.01298  -0.01486   0.01316   0.03386
     Eigenvalues ---    0.02258   0.02258   0.08373   0.14597   0.15916
     Eigenvalues ---    0.16177   0.25251   0.31885   0.45864   0.46765
     Eigenvalues ---    0.52942   0.891751000.000001000.000001000.00000
 En-DIIS/RFO-DIIS IScMMF=        0 using points:     5    4    3    2
 RFO step:  Lambda= 0.00000000D+00.
 DIIS coeffs:      1.09743     -0.03906     -0.07292      0.01456
 Iteration  1 RMS(Cart)=  0.00006640 RMS(Int)=  0.00000012
 Iteration  2 RMS(Cart)=  0.00000000 RMS(Int)=  0.00000012
 Variable       Old X    -DE/DX   Delta X   Delta X   Delta X     New X
                                  (DIIS)     (GDIIS)  (Total)
    R1        2.58405   0.00000   0.00001  -0.00002  -0.00001   2.58404
    R2        2.31653   0.00000   0.00000   0.00000   0.00000   2.31652
    R3        2.11568  -0.00001  -0.00003   0.00001  -0.00002   2.11565
    R4        1.92144   0.00000  -0.00002   0.00002   0.00000   1.92145
    R5        1.91789   0.00000   0.00001  -0.00002  -0.00001   1.91788
    A1        2.18077   0.00003   0.00011  -0.00001   0.00010   2.18087
    A2        1.94709   0.00001  -0.00003   0.00012   0.00009   1.94719
    A3        2.15532  -0.00003  -0.00008  -0.00011  -0.00019   2.15513
    A4        2.07681  -0.00001  -0.00005  -0.00003  -0.00008   2.07672
    A5        2.12400   0.00000   0.00004  -0.00002   0.00002   2.12401
    A6        2.08238   0.00001   0.00001   0.00005   0.00006   2.08245
    D1       -0.00028   0.00000  -0.00001   0.00001   0.00000  -0.00028
    D2       -3.14123   0.00000  -0.00001  -0.00001  -0.00002  -3.14125
    D3        3.14135   0.00000   0.00001   0.00001   0.00002   3.14136
    D4        0.00039   0.00000   0.00000  -0.00001   0.00000   0.00039
         Item               Value     Threshold  Converged?
 Maximum Force            0.000035     0.000450     YES
 RMS     Force            0.000012     0.000300     YES
 Maximum Displacement     0.000163     0.001800     YES
 RMS     Displacement     0.000066     0.001200     YES
 Predicted change in Energy=-5.897957D-09
 Optimization completed.
    -- Stationary point found.
                           ----------------------------
                           !   Optimized Parameters   !
                           ! (Angstroms and Degrees)  !
 --------------------------                            --------------------------
 ! Name  Definition              Value          Derivative Info.                !
 --------------------------------------------------------------------------------
 ! R1    R(1,2)                  1.3674         -DE/DX =    0.0                 !
 ! R2    R(1,3)                  1.2259         -DE/DX =    0.0                 !
 ! R3    R(1,6)                  1.1196         -DE/DX =    0.0                 !
 ! R4    R(2,4)                  1.0168         -DE/DX =    0.0                 !
 ! R5    R(2,5)                  1.0149         -DE/DX =    0.0                 !
 ! A1    A(2,1,3)              124.9488         -DE/DX =    0.0                 !
 ! A2    A(2,1,6)              111.5602         -DE/DX =    0.0                 !
 ! A3    A(3,1,6)              123.491          -DE/DX =    0.0                 !
 ! A4    A(1,2,4)              118.9922         -DE/DX =    0.0                 !
 ! A5    A(1,2,5)              121.696          -DE/DX =    0.0                 !
 ! A6    A(4,2,5)              119.3118         -DE/DX =    0.0                 !
 ! D1    D(3,1,2,4)             -0.0159         -DE/DX =    0.0                 !
 ! D2    D(3,1,2,5)           -179.9795         -DE/DX =    0.0                 !
 ! D3    D(6,1,2,4)            179.9861         -DE/DX =    0.0                 !
 ! D4    D(6,1,2,5)              0.0226         -DE/DX =    0.0                 !
 --------------------------------------------------------------------------------
 GradGradGradGradGradGradGradGradGradGradGradGradGradGradGradGradGradGrad

                          Input orientation:                          
 ---------------------------------------------------------------------
 Center     Atomic      Atomic             Coordinates (Angstroms)
 Number     Number       Type             X           Y           Z
 ---------------------------------------------------------------------
      1          6           0       -0.159801    0.389966    0.000003
      2          7           0        1.091750   -0.160901   -0.000049
      3          8           0       -1.207301   -0.246789   -0.000004
      4          1           0        1.184533   -1.173444    0.000150
      5          1           0        1.927683    0.414640    0.000269
      6          1           0       -0.116894    1.508711    0.000017
 ---------------------------------------------------------------------
                    Distance matrix (angstroms):
                    1          2          3          4          5
     1  C    0.000000
     2  N    1.367419   0.000000
     3  O    1.225852   2.300655   0.000000
     4  H    2.061913   1.016784   2.565065   0.000000
     5  H    2.087630   1.014905   3.204000   1.753362   0.000000
     6  H    1.119568   2.061171   2.066584   2.981219   2.318898
                    6
     6  H    0.000000
 Stoichiometry    CH3NO
 Framework group  C1[X(CH3NO)]
 Deg. of freedom    12
 Full point group                 C1      NOp   1
 Largest Abelian subgroup         C1      NOp   1
 Largest concise Abelian subgroup C1      NOp   1
                         Standard orientation:                         
 ---------------------------------------------------------------------
 Center     Atomic      Atomic             Coordinates (Angstroms)
 Number     Number       Type             X           Y           Z
 ---------------------------------------------------------------------
      1          6           0       -0.160394    0.390526    0.000000
      2          7           0        1.090797   -0.161160   -0.000052
      3          8           0       -1.208310   -0.245544   -0.000007
      4          1           0        1.182918   -1.173762    0.000146
      5          1           0        1.927106    0.413835    0.000266
      6          1           0       -0.116755    1.509243    0.000014
 ---------------------------------------------------------------------
 Rotational constants (GHZ):     72.3054923     11.1542533      9.6635063

 **********************************************************************

            Population analysis using the SCF density.

 **********************************************************************

 Orbital symmetries:
       Occupied  (A) (A) (A) (A) (A) (A) (A) (A) (A) (A) (A) (A)
       Virtual   (A) (A) (A) (A) (A) (A) (A) (A) (A) (A) (A) (A)
                 (A) (A) (A) (A) (A) (A) (A) (A) (A) (A) (A) (A)
                 (A) (A) (A) (A) (A) (A) (A) (A) (A) (A) (A) (A)
                 (A) (A) (A) (A) (A) (A) (A) (A) (A) (A) (A) (A)
 The electronic state is 1-A.
 Alpha  occ. eigenvalues --  -18.73913 -14.03415  -9.99024  -0.93381  -0.82356
 Alpha  occ. eigenvalues --   -0.56061  -0.49700  -0.41858  -0.34961  -0.34842
 Alpha  occ. eigenvalues --   -0.22895  -0.20126
 Alpha virt. eigenvalues --   -0.00612   0.04837   0.08345   0.13586   0.23881
 Alpha virt. eigenvalues --    0.29750   0.50392   0.51041   0.60573   0.62313
 Alpha virt. eigenvalues --    0.63464   0.66863   0.78282   0.78354   0.79294
 Alpha virt. eigenvalues --    0.82438   0.94783   1.02484   1.16105   1.21923
 Alpha virt. eigenvalues --    1.26446   1.31507   1.43444   1.45457   1.68461
 Alpha virt. eigenvalues --    1.74947   1.76215   1.89113   1.92348   1.99459
 Alpha virt. eigenvalues --    2.03786   2.04317   2.18751   2.27788   2.40702
 Alpha virt. eigenvalues --    2.43672   2.52222   2.64623   2.66153   2.75772
 Alpha virt. eigenvalues --    2.89556   2.90807   3.14451   3.35190   3.53010
 Alpha virt. eigenvalues --    3.77681   3.85521   4.29094
          Condensed to atoms (all electrons):
              1          2          3          4          5          6
     1  C    4.470416   0.238254   0.593139  -0.006274  -0.004386   0.360544
     2  N    0.238254   6.915455  -0.087434   0.303889   0.305432  -0.127326
     3  O    0.593139  -0.087434   7.959111   0.007845   0.003571  -0.054908
     4  H   -0.006274   0.303889   0.007845   0.426854  -0.020212   0.008568
     5  H   -0.004386   0.305432   0.003571  -0.020212   0.437424   0.006795
     6  H    0.360544  -0.127326  -0.054908   0.008568   0.006795   0.735745
 Mulliken atomic charges:
              1
     1  C    0.348307
     2  N   -0.548270
     3  O   -0.421324
     4  H    0.279329
     5  H    0.271376
     6  H    0.070582
 Sum of Mulliken atomic charges =   0.00000
 Mulliken charges with hydrogens summed into heavy atoms:
              1
     1  C    0.418889
     2  N    0.002435
     3  O   -0.421324
 Sum of Mulliken charges with hydrogens summed into heavy atoms =   0.00000
 Electronic spatial extent (au):  <R**2>=            147.2378
 Charge=              0.0000 electrons
 Dipole moment (field-independent basis, Debye):
    X=              3.6879    Y=              0.5973    Z=              0.0008  Tot=              3.7360
 Quadrupole moment (field-independent basis, Debye-Ang):
   XX=            -17.0300   YY=            -15.1481   ZZ=            -18.4225
   XY=             -1.0320   XZ=              0.0015   YZ=             -0.0001
 Traceless Quadrupole moment (field-independent basis, Debye-Ang):
   XX=             -0.1631   YY=              1.7188   ZZ=             -1.5556
   XY=             -1.0320   XZ=              0.0015   YZ=             -0.0001
 Octapole moment (field-independent basis, Debye-Ang**2):
  XXX=             11.5697  YYY=             -2.9637  ZZZ=              0.0006  XYY=              2.5795
  XXY=              0.6623  XXZ=              0.0027  XZZ=             -1.5117  YZZ=             -0.4401
  YYZ=              0.0006  XYZ=             -0.0001
 Hexadecapole moment (field-independent basis, Debye-Ang**3):
 XXXX=           -105.7740 YYYY=            -33.8525 ZZZZ=            -15.5474 XXXY=              2.7278
 XXXZ=              0.0043 YYYX=             -2.9211 YYYZ=             -0.0006 ZZZX=              0.0002
 ZZZY=             -0.0002 XXYY=            -22.6841 XXZZ=            -23.6121 YYZZ=             -9.1937
 XXYZ=              0.0002 YYXZ=              0.0006 ZZXY=              0.3273
 N-N= 7.056945094194D+01 E-N=-5.388510756947D+02  KE= 1.681529461138D+02
 1\1\GINC-CLODOMIRA\FOpt\RPBEPBE\6-31G(d,p)\C1H3N1O1\DIEGOA\30-Oct-2019
 \0\\# pbepbe/6-31G** opt Freq=(savenormalmodes,raman)\\Title\\0,1\C,-0
 .1598010303,0.3899659245,0.0000032246\N,1.0917499816,-0.1609013911,-0.
 0000488522\O,-1.2073013743,-0.2467890123,-0.0000038276\H,1.1845330803,
 -1.1734435354,0.0001499633\H,1.9276831332,0.4146395643,0.0002693642\H,
 -0.1168937905,1.50871145,0.0000171276\\Version=EM64L-G09RevA.01\State=
 1-A\HF=-169.7051234\RMSD=6.446e-09\RMSF=1.459e-05\Dipole=1.4507865,0.2
 359521,0.0003312\Quadrupole=-0.1202699,1.2768555,-1.1565856,-0.768152,
 0.0010888,-0.0001104\PG=C01 [X(C1H3N1O1)]\\@


 ADVERTISING--  HE WHO HAS SOMETHING TO SELL AND GOES AND WHISPERS
                IN A WELL, IS NOT SO APT TO GET THE DOLLARS AS HE
                WHO CLIMBS A TREE AND HOLLERS.

                   -- FROM THE BACK OF A SUGAR PACKET
 Job cpu time:  0 days  0 hours  0 minutes 57.0 seconds.
 File lengths (MBytes):  RWF=      9 Int=      0 D2E=      0 Chk=      2 Scr=      1
 Normal termination of Gaussian 09 at Wed Oct 30 15:34:11 2019.
 Link1:  Proceeding to internal job step number  2.
 ----------------------------------------------------------------------
 #N Geom=AllCheck Guess=TCheck SCRF=Check GenChk RPBEPBE/6-31G(d,p) Fre
 q
 ----------------------------------------------------------------------
 1/10=4,29=7,30=1,38=1,40=1/1,3;
 2/12=2,40=1/2;
 3/5=1,6=6,7=101,11=2,14=-4,16=1,25=1,30=1,70=2,71=2,74=1009,82=47,116=1/1,2,3;
 4/5=101/1;
 5/5=2,98=1/2;
 8/6=4,10=90,11=11/1;
 10/13=10,15=4/2;
 11/6=3,8=1,9=11,15=111,16=1/1,2,10;
 10/6=1/2;
 6/7=2,8=2,9=2,10=2,18=1,28=1/1;
 7/8=1,10=1,25=1,92=1/1,2,3,16;
 1/10=4,30=1/3;
 99//99;
 -----
 Title
 -----
 Redundant internal coordinates taken from checkpoint file:
 freq.chk
 Charge =  0 Multiplicity = 1
 C,0,-0.1598010303,0.3899659245,0.0000032246
 N,0,1.0917499816,-0.1609013911,-0.0000488522
 O,0,-1.2073013743,-0.2467890123,-0.0000038276
 H,0,1.1845330803,-1.1734435354,0.0001499633
 H,0,1.9276831332,0.4146395643,0.0002693642
 H,0,-0.1168937905,1.50871145,0.0000171276
 Recover connectivity data from disk.

 GradGradGradGradGradGradGradGradGradGradGradGradGradGradGradGradGradGrad
 Berny optimization.
 Initialization pass.
                           ----------------------------
                           !    Initial Parameters    !
                           ! (Angstroms and Degrees)  !
 --------------------------                            --------------------------
 ! Name  Definition              Value          Derivative Info.                !
 --------------------------------------------------------------------------------
 ! R1    R(1,2)                  1.3674         calculate D2E/DX2 analytically  !
 ! R2    R(1,3)                  1.2259         calculate D2E/DX2 analytically  !
 ! R3    R(1,6)                  1.1196         calculate D2E/DX2 analytically  !
 ! R4    R(2,4)                  1.0168         calculate D2E/DX2 analytically  !
 ! R5    R(2,5)                  1.0149         calculate D2E/DX2 analytically  !
 ! A1    A(2,1,3)              124.9488         calculate D2E/DX2 analytically  !
 ! A2    A(2,1,6)              111.5602         calculate D2E/DX2 analytically  !
 ! A3    A(3,1,6)              123.491          calculate D2E/DX2 analytically  !
 ! A4    A(1,2,4)              118.9922         calculate D2E/DX2 analytically  !
 ! A5    A(1,2,5)              121.696          calculate D2E/DX2 analytically  !
 ! A6    A(4,2,5)              119.3118         calculate D2E/DX2 analytically  !
 ! D1    D(3,1,2,4)             -0.0159         calculate D2E/DX2 analytically  !
 ! D2    D(3,1,2,5)           -179.9795         calculate D2E/DX2 analytically  !
 ! D3    D(6,1,2,4)            179.9861         calculate D2E/DX2 analytically  !
 ! D4    D(6,1,2,5)              0.0226         calculate D2E/DX2 analytically  !
 --------------------------------------------------------------------------------
 Trust Radius=3.00D-01 FncErr=1.00D-07 GrdErr=1.00D-07
 Number of steps in this run=   2 maximum allowed number of steps=   2.
 GradGradGradGradGradGradGradGradGradGradGradGradGradGradGradGradGradGrad

                          Input orientation:                          
 ---------------------------------------------------------------------
 Center     Atomic      Atomic             Coordinates (Angstroms)
 Number     Number       Type             X           Y           Z
 ---------------------------------------------------------------------
      1          6           0       -0.159801    0.389966    0.000003
      2          7           0        1.091750   -0.160901   -0.000049
      3          8           0       -1.207301   -0.246789   -0.000004
      4          1           0        1.184533   -1.173444    0.000150
      5          1           0        1.927683    0.414640    0.000269
      6          1           0       -0.116894    1.508711    0.000017
 ---------------------------------------------------------------------
                    Distance matrix (angstroms):
                    1          2          3          4          5
     1  C    0.000000
     2  N    1.367419   0.000000
     3  O    1.225852   2.300655   0.000000
     4  H    2.061913   1.016784   2.565065   0.000000
     5  H    2.087630   1.014905   3.204000   1.753362   0.000000
     6  H    1.119568   2.061171   2.066584   2.981219   2.318898
                    6
     6  H    0.000000
 Stoichiometry    CH3NO
 Framework group  C1[X(CH3NO)]
 Deg. of freedom    12
 Full point group                 C1      NOp   1
 Largest Abelian subgroup         C1      NOp   1
[...]
 Raman Activ --     1.1319                 1.3082                 2.0330
 Depolar (P) --     0.7500                 0.7006                 0.7500
 Depolar (U) --     0.8571                 0.8239                 0.8571
  Atom  AN      X      Y      Z        X      Y      Z        X      Y      Z
     1   6     0.00   0.00  -0.02    -0.01   0.20   0.00     0.00   0.00  -0.11
     2   7     0.00   0.00   0.13    -0.15  -0.02   0.00     0.00   0.00   0.05
     3   8     0.00   0.00  -0.01     0.18  -0.11   0.00     0.00   0.00   0.06
     4   1     0.00   0.00  -0.54    -0.76  -0.08   0.00     0.00   0.00  -0.76
     5   1     0.00   0.00  -0.83     0.17  -0.48   0.00     0.00   0.00   0.60
     6   1     0.00   0.00   0.02    -0.13   0.19   0.00     0.00   0.00  -0.20
                     4                      5                      6
                     A                      A                      A
 Frequencies --   997.7380              1016.9503              1242.8742
 Red. masses --     1.5271                 1.7507                 2.8035
 Frc consts  --     0.8957                 1.0667                 2.5516
 IR Inten    --     1.0225                 1.3898                74.1324
 Raman Activ --     3.5210                 6.6526                 4.8188
 Depolar (P) --     0.7500                 0.5584                 0.3949
 Depolar (U) --     0.8571                 0.7166                 0.5662
  Atom  AN      X      Y      Z        X      Y      Z        X      Y      Z
     1   6     0.00   0.00   0.21    -0.04  -0.01   0.00    -0.18   0.26   0.00
     2   7     0.00   0.00  -0.03     0.19   0.06   0.00     0.12  -0.18   0.00
     3   8     0.00   0.00  -0.05    -0.12  -0.01   0.00     0.00  -0.05   0.00
     4   1     0.00   0.00  -0.19    -0.44  -0.01   0.00     0.81  -0.12   0.00
     5   1     0.00   0.00  -0.01     0.60  -0.54   0.00     0.02   0.00   0.00
     6   1     0.00   0.00  -0.96    -0.32  -0.02   0.00    -0.33   0.26   0.00
                     7                      8                      9
                     A                      A                      A
 Frequencies --  1381.6199              1564.5130              1788.8437
 Red. masses --     1.2018                 1.2686                 7.5257
 Frc consts  --     1.3516                 1.8294                14.1887
 IR Inten    --     4.1017                62.0046               306.0601
 Raman Activ --     8.9805                 6.6819                 7.4294
 Depolar (P) --     0.4895                 0.7105                 0.3796
 Depolar (U) --     0.6573                 0.8308                 0.5503
  Atom  AN      X      Y      Z        X      Y      Z        X      Y      Z
     1   6     0.03  -0.06   0.00     0.00   0.06   0.00     0.58   0.24   0.00
     2   7    -0.01  -0.03   0.00     0.11  -0.06   0.00    -0.12  -0.01   0.00
     3   8     0.06   0.07   0.00    -0.04  -0.03   0.00    -0.32  -0.19   0.00
     4   1    -0.05  -0.03   0.00    -0.64  -0.13   0.00     0.39   0.06   0.00
     5   1    -0.12   0.12   0.00    -0.37   0.64   0.00    -0.08  -0.06   0.00
     6   1    -0.97  -0.05   0.00     0.06   0.07   0.00    -0.48   0.26   0.00
                    10                     11                     12
                     A                      A                      A
 Frequencies --  2855.8854              3508.8588              3656.7328
 Red. masses --     1.0852                 1.0446                 1.1050
 Frc consts  --     5.2148                 7.5776                 8.7060
 IR Inten    --   119.7821                19.0364                28.8666
 Raman Activ --   123.9422               143.4551                70.3363
 Depolar (P) --     0.3127                 0.1237                 0.7302
 Depolar (U) --     0.4764                 0.2201                 0.8440
  Atom  AN      X      Y      Z        X      Y      Z        X      Y      Z
     1   6     0.00   0.08   0.00     0.00   0.00   0.00     0.00   0.00   0.00
     2   7     0.00   0.00   0.00     0.05  -0.03   0.00     0.04   0.08   0.00
     3   8     0.00   0.00   0.00     0.00   0.00   0.00     0.00   0.00   0.00
     4   1     0.00   0.01   0.00    -0.07   0.73   0.00     0.07  -0.67   0.00
     5   1     0.00   0.02   0.00    -0.55  -0.39   0.00    -0.61  -0.42   0.00
     6   1    -0.01  -1.00   0.00     0.00   0.00   0.00     0.00  -0.01   0.00

 -------------------
 - Thermochemistry -
 -------------------
 Temperature   298.150 Kelvin.  Pressure   1.00000 Atm.
 Atom     1 has atomic number  6 and mass  12.00000
 Atom     2 has atomic number  7 and mass  14.00307
 Atom     3 has atomic number  8 and mass  15.99491
 Atom     4 has atomic number  1 and mass   1.00783
 Atom     5 has atomic number  1 and mass   1.00783
 Atom     6 has atomic number  1 and mass   1.00783
 Molecular mass:    45.02146 amu.
 Principal axes and moments of inertia in atomic units:
                           1         2         3
     Eigenvalues --    24.95995 161.79848 186.75842
           X            0.99983  -0.01854   0.00000
           Y            0.01854   0.99983  -0.00001
           Z            0.00000   0.00001   1.00000
 This molecule is an asymmetric top.
 Rotational symmetry number  1.
 Rotational temperatures (Kelvin)      3.47011     0.53532     0.46377
 Rotational constants (GHZ):          72.30549    11.15425     9.66351
 Zero-point vibrational energy     115577.5 (Joules/Mol)
                                   27.62368 (Kcal/Mol)
 Warning -- explicit consideration of   2 degrees of freedom as
           vibrations may cause significant error
 Vibrational temperatures:    177.93   778.21   927.25  1435.52  1463.16
          (Kelvin)           1788.22  1987.84  2250.98  2573.74  4108.98
                             5048.46  5261.22
 
 Zero-point correction=                           0.044021 (Hartree/Particle)
 Thermal correction to Energy=                    0.047976
 Thermal correction to Enthalpy=                  0.048920
 Thermal correction to Gibbs Free Energy=         0.019071
 Sum of electronic and zero-point Energies=           -169.661102
 Sum of electronic and thermal Energies=              -169.657148
 Sum of electronic and thermal Enthalpies=            -169.656204
 Sum of electronic and thermal Free Energies=         -169.686052
 
                     E (Thermal)             CV                S
                      KCal/Mol        Cal/Mol-Kelvin    Cal/Mol-Kelvin
 Total                   30.105             11.106             62.822
 Electronic               0.000              0.000              0.000
 Translational            0.889              2.981             37.339
 Rotational               0.889              2.981             21.250
 Vibrational             28.328              5.144              4.233
 Vibration     1          0.610              1.929              3.042
 Vibration     2          0.896              1.160              0.563
                       Q            Log10(Q)             Ln(Q)
 Total Bot       0.169017D-08         -8.772070        -20.198438
 Total V=0       0.299365D+12         11.476201         26.424930
 Vib (Bot)       0.144794D-19        -19.839250        -45.681562
 Vib (Bot)    1  0.165101D+01          0.217751          0.501390
 Vib (Bot)    2  0.292672D+00         -0.533619         -1.228702
 Vib (V=0)       0.256461D+01          0.409021          0.941806
 Vib (V=0)    1  0.222506D+01          0.347343          0.799786
 Vib (V=0)    2  0.107936D+01          0.033166          0.076367
 Electronic      0.100000D+01          0.000000          0.000000
 Translational   0.118737D+08          7.074585         16.289833
 Rotational      0.983095D+04          3.992596          9.193291
 ***** Axes restored to original set *****
 -------------------------------------------------------------------
 Center     Atomic                   Forces (Hartrees/Bohr)
 Number     Number              X              Y              Z
 -------------------------------------------------------------------
      1        6           0.000028460   -0.000030547    0.000001908
      2        7           0.000016648    0.000013148    0.000000202
      3        8          -0.000011142    0.000030604   -0.000000863
      4        1          -0.000016093   -0.000004564   -0.000000211
      5        1          -0.000002155   -0.000004692   -0.000000397
      6        1          -0.000015718   -0.000003949   -0.000000639
 -------------------------------------------------------------------
 Cartesian Forces:  Max     0.000030604 RMS     0.000014583

 GradGradGradGradGradGradGradGradGradGradGradGradGradGradGradGradGradGrad
 Berny optimization.
 Internal  Forces:  Max     0.000034640 RMS     0.000012447
 Search for a local minimum.
 Step number   1 out of a maximum of    2
 All quantities printed in internal units (Hartrees-Bohrs-Radians)
 Second derivative matrix not updated -- analytic derivatives used.
 The second derivative matrix:
                          R1        R2        R3        R4        R5
           R1           0.44001
           R2           0.07041   0.80182
           R3           0.01795   0.03129   0.28981
           R4           0.00746  -0.00120  -0.00013   0.45653
           R5           0.00407  -0.00159   0.00054  -0.00466   0.45936
           A1           0.01680   0.03036  -0.01508  -0.00841   0.00875
           A2           0.01139  -0.03916   0.01521   0.00762  -0.00479
           A3          -0.02819   0.00880  -0.00013   0.00079  -0.00396
           A4           0.00185   0.00040   0.00184   0.00727  -0.00859
           A5           0.00842   0.00267   0.00070  -0.01027   0.00276
           A6          -0.01027  -0.00307  -0.00254   0.00300   0.00583
           D1           0.00001   0.00000   0.00000   0.00000   0.00000
           D2          -0.00001   0.00000   0.00000   0.00000   0.00000
           D3           0.00001   0.00000   0.00000   0.00000   0.00000
           D4          -0.00001   0.00000   0.00000  -0.00001   0.00000
                          A1        A2        A3        A4        A5
           A1           0.15965
           A2          -0.08041   0.11522
           A3          -0.07924  -0.03481   0.11405
           A4          -0.02309   0.01877   0.00432   0.06926
           A5           0.02074  -0.01477  -0.00598  -0.03682   0.07202
           A6           0.00235  -0.00401   0.00166  -0.03244  -0.03520
           D1           0.00000   0.00000   0.00000   0.00000   0.00000
           D2           0.00000   0.00000   0.00000   0.00000   0.00000
           D3           0.00000   0.00000   0.00000   0.00000   0.00000
           D4           0.00000   0.00000   0.00000   0.00000   0.00000
                          A6        D1        D2        D3        D4
           A6           0.06764
           D1           0.00000   0.02602
           D2           0.00000   0.02693   0.02944
           D3           0.00000  -0.01467  -0.01983   0.02758
           D4           0.00000  -0.01376  -0.01731   0.02243   0.01887
     Eigenvalues ---    0.00062   0.01762   0.08368   0.09229   0.10240
     Eigenvalues ---    0.14615   0.23566   0.29656   0.43014   0.45645
     Eigenvalues ---    0.46466   0.821091000.000001000.000001000.00000
 Angle between quadratic step and forces=  66.26 degrees.
 Linear search not attempted -- first point.
 Iteration  1 RMS(Cart)=  0.00012147 RMS(Int)=  0.00000004
 Iteration  2 RMS(Cart)=  0.00000003 RMS(Int)=  0.00000003
 Variable       Old X    -DE/DX   Delta X   Delta X   Delta X     New X
                                 (Linear)    (Quad)   (Total)
    R1        2.58405   0.00000   0.00000  -0.00002  -0.00002   2.58402
    R2        2.31653   0.00000   0.00000   0.00000   0.00000   2.31653
    R3        2.11568  -0.00001   0.00000  -0.00002  -0.00002   2.11566
    R4        1.92144   0.00000   0.00000   0.00000   0.00000   1.92145
    R5        1.91789   0.00000   0.00000  -0.00001  -0.00001   1.91788
    A1        2.18077   0.00003   0.00000   0.00010   0.00010   2.18086
    A2        1.94709   0.00001   0.00000   0.00011   0.00011   1.94720
    A3        2.15532  -0.00003   0.00000  -0.00021  -0.00021   2.15512
    A4        2.07681  -0.00001   0.00000  -0.00012  -0.00012   2.07668
    A5        2.12400   0.00000   0.00000   0.00003   0.00003   2.12402
    A6        2.08238   0.00001   0.00000   0.00009   0.00009   2.08248
    D1       -0.00028   0.00000   0.00000   0.00027   0.00027   0.00000
    D2       -3.14123   0.00000   0.00000  -0.00035  -0.00035  -3.14159
    D3        3.14135   0.00000   0.00000   0.00024   0.00024   3.14159
    D4        0.00039   0.00000   0.00000  -0.00039  -0.00039   0.00001
         Item               Value     Threshold  Converged?
 Maximum Force            0.000035     0.000450     YES
 RMS     Force            0.000012     0.000300     YES
 Maximum Displacement     0.000296     0.001800     YES
 RMS     Displacement     0.000121     0.001200     YES
 Predicted change in Energy=-6.834681D-09
 Optimization completed.
    -- Stationary point found.
                           ----------------------------
                           !   Optimized Parameters   !
                           ! (Angstroms and Degrees)  !
 --------------------------                            --------------------------
 ! Name  Definition              Value          Derivative Info.                !
 --------------------------------------------------------------------------------
 ! R1    R(1,2)                  1.3674         -DE/DX =    0.0                 !
 ! R2    R(1,3)                  1.2259         -DE/DX =    0.0                 !
 ! R3    R(1,6)                  1.1196         -DE/DX =    0.0                 !
 ! R4    R(2,4)                  1.0168         -DE/DX =    0.0                 !
 ! R5    R(2,5)                  1.0149         -DE/DX =    0.0                 !
 ! A1    A(2,1,3)              124.9488         -DE/DX =    0.0                 !
 ! A2    A(2,1,6)              111.5602         -DE/DX =    0.0                 !
 ! A3    A(3,1,6)              123.491          -DE/DX =    0.0                 !
 ! A4    A(1,2,4)              118.9922         -DE/DX =    0.0                 !
 ! A5    A(1,2,5)              121.696          -DE/DX =    0.0                 !
 ! A6    A(4,2,5)              119.3118         -DE/DX =    0.0                 !
 ! D1    D(3,1,2,4)             -0.0159         -DE/DX =    0.0                 !
 ! D2    D(3,1,2,5)           -179.9795         -DE/DX =    0.0                 !
 ! D3    D(6,1,2,4)            179.9861         -DE/DX =    0.0                 !
 ! D4    D(6,1,2,5)              0.0226         -DE/DX =    0.0                 !
 --------------------------------------------------------------------------------
 GradGradGradGradGradGradGradGradGradGradGradGradGradGradGradGradGradGrad

 1\1\GINC-CLODOMIRA\Freq\RPBEPBE\6-31G(d,p)\C1H3N1O1\DIEGOA\30-Oct-2019
 \0\\#N Geom=AllCheck Guess=TCheck SCRF=Check GenChk RPBEPBE/6-31G(d,p)
  Freq\\Title\\0,1\C,-0.1598010303,0.3899659245,0.0000032246\N,1.091749
 9816,-0.1609013911,-0.0000488522\O,-1.2073013743,-0.2467890123,-0.0000
 038276\H,1.1845330803,-1.1734435354,0.0001499633\H,1.9276831332,0.4146
 395643,0.0002693642\H,-0.1168937905,1.50871145,0.0000171276\\Version=E
 M64L-G09RevA.01\State=1-A\HF=-169.7051234\RMSD=4.251e-09\RMSF=1.458e-0
 5\ZeroPoint=0.0440211\Thermal=0.0479757\Dipole=1.4507854,0.2359518,0.0
 003312\DipoleDeriv=1.6947283,-0.0387689,-0.000047,-0.0413658,0.8929867
 ,-0.0000059,-0.0000424,-0.0000304,0.2422604,-0.9182795,0.2004812,0.000
 1085,0.4321691,-0.3012548,-0.0000058,0.0003265,-0.0000155,-0.619062,-1
 .069705,-0.0933106,0.0000061,-0.3502238,-0.5809185,0.0000162,-0.000012
 5,0.0000203,-0.3627649,0.143914,-0.0217703,-0.00002,0.0061826,0.143602
 5,0.0000262,-0.0000986,0.0000565,0.3371026,0.136023,0.0092809,-0.00003
 85,-0.0287798,0.1321993,-0.000026,-0.0001684,-0.0000221,0.3384878,0.01
 33191,-0.0559123,-0.0000092,-0.0179824,-0.2866153,-0.0000047,-0.000004
 6,-0.0000089,0.0639762\Polar=30.1759688,0.6306486,22.9468218,0.0005584
 ,0.0001192,10.0950327\PolarDeriv=3.4963438,2.3929624,-1.0365489,0.0001
 716,0.0000258,0.2235463,4.3266295,1.5943435,-8.3917766,0.0001229,0.000
 508,0.3661,0.0006033,0.0002109,0.0005939,-0.487742,0.6559218,0.0007326
 ,-3.3258889,-3.1364442,-2.4270744,-0.0024386,-0.000184,-0.0113963,-2.5
 64305,-2.5965663,5.3547193,-0.0003924,-0.0018697,-0.2773651,-0.0031475
 ,-0.0005494,-0.0022947,2.6912326,-0.7267029,-0.0023057,-11.0596962,-1.
 6914867,1.2592089,0.000269,-0.0000426,-0.285258,-3.616323,-4.269969,-1
 .8627953,-0.0000174,-0.0001535,-0.6185672,-0.0004067,-0.0001049,-0.000
 0966,-3.7983281,-1.5470734,-0.0001416,1.6721117,-1.3102432,-0.0121631,
 0.0004347,0.0000252,-0.0163877,-2.6023498,2.9942393,-8.4289498,-0.0004
 739,0.0007637,-0.0502863,0.0006678,-0.0003466,0.0012811,0.336488,-1.69
 50309,0.0006969,9.3379127,1.7550114,1.2271936,0.0015343,0.0001669,0.07
 27017,4.1156886,2.7401062,2.1841152,0.0007712,0.0007428,-0.0118587,0.0
 023997,0.0006967,0.0007252,1.3564163,0.8602027,0.0011579,-0.1207833,1.
 9902003,0.9893839,0.000029,0.0000087,0.0167939,0.3406598,-0.4621536,11
 .1446872,-0.0000104,0.0000087,0.5919773,-0.0001166,0.0000932,-0.000208
 9,-0.0980669,2.4526827,-0.0001401\HyperPolar=67.9949073,24.7072228,37.
 7360365,27.6585977,0.0230097,0.0006109,0.0106399,2.0374927,0.8070486,-
 0.000337\PG=C01 [X(C1H3N1O1)]\NImag=0\\0.88535576,0.16371330,0.7239531
 9,0.00000878,0.00000953,0.17065595,-0.29731603,0.09806720,0.00001258,0
 .77203544,0.08746826,-0.18876863,-0.00001217,0.04573783,0.80299443,-0.
 00001938,-0.00000036,-0.03801631,0.00014492,-0.00001069,0.01183379,-0.
 52515840,-0.27229753,-0.00000610,-0.08331868,-0.02117790,0.00000534,0.
 61546744,-0.27292357,-0.28567433,-0.00000461,-0.00457113,0.03661515,0.
 00000446,0.31589049,0.26691919,-0.00000640,-0.00000276,-0.06762979,0.0
 0000138,0.00000197,0.01734177,0.00000385,0.00000339,0.03033155,0.00948
 367,0.03583181,-0.00000745,-0.07297326,0.03285786,-0.00001861,0.001989
 38,-0.00657026,0.00000171,0.05839845,0.00234247,-0.01445412,0.00000399
 ,0.02796248,-0.43528753,0.00007267,-0.00293245,0.00216116,-0.00000121,
 -0.03869006,0.45279294,0.00000776,-0.00000634,0.00109188,-0.00002446,0
 .00010211,-0.00470720,-0.00000296,-0.00000110,-0.00576335,0.00001511,-
 0.00008120,0.00861722,-0.01422675,-0.02630671,-0.00000784,-0.31891804,
 -0.17858482,-0.00011090,-0.00439915,0.00649921,-0.00000049,0.00822583,
 0.00855100,0.00000323,0.32850530,0.00915932,0.01491992,0.00000654,-0.1
 7503596,-0.19663580,-0.00006611,0.00373668,0.00027120,-0.00000157,-0.0
 2587851,-0.00543088,-0.00001271,0.18846136,0.18795823,0.00001160,0.000
 00057,-0.01073577,-0.00013522,-0.00007969,0.00450063,-0.00000002,-0.00
 000109,0.00817438,0.00000915,0.00000583,-0.00574693,0.00011453,0.00007
 365,0.00512121,-0.05813826,0.00099194,0.00000004,0.00049057,0.03369876
 ,-0.00000137,-0.00458059,-0.03832475,-0.00000005,-0.00512407,0.0027665
 5,0.00000133,0.00081281,-0.00044288,-0.00000004,0.06653953,0.01024021,
 -0.24997603,-0.00000329,0.00783958,-0.01891763,0.00000004,-0.02321929,
 -0.02029237,0.00000018,0.00244916,0.00021842,-0.00000077,0.00137996,-0
 .00108267,0.00000074,0.00131037,0.29005028,-0.00000235,-0.00000064,-0.
 05536596,0.00000081,-0.00000153,0.00904732,-0.00000010,-0.00000106,0.0
 1754545,0.00000009,-0.00000007,0.00650839,0.00000147,0.00000019,-0.001
 31352,0.00000009,0.00000311,0.02357832\\-0.00002846,0.00003055,-0.0000
 0191,-0.00001665,-0.00001315,-0.00000020,0.00001114,-0.00003060,0.0000
 0086,0.00001609,0.00000456,0.00000021,0.00000216,0.00000469,0.00000040
 ,0.00001572,0.00000395,0.00000064\\\@


 Spring appears, and we are once more children.
                                  -- Anonymous
 Job cpu time:  0 days  0 hours  0 minutes 34.4 seconds.
 File lengths (MBytes):  RWF=      9 Int=      0 D2E=      0 Chk=      2 Scr=      1
 Normal termination of Gaussian 09 at Wed Oct 30 15:34:21 2019.
