Title                                                                   
Force     RTD-CAM-B3LYP-FC                                            6-31G(d,p)          
Number of atoms                            I                6
Info1-9                                    I   N=           9
          14          14           0           0           0         100
           5         218           1
Charge                                     I                0
Multiplicity                               I                1
Number of electrons                        I               24
Number of alpha electrons                  I               12
Number of beta electrons                   I               12
Number of basis functions                  I               60
Number of independent functions            I               60
Number of point charges in /Mol/           I                0
Number of translation vectors              I                0
Atomic numbers                             I   N=           6
           6           7           8           1           1           1
Nuclear charges                            R   N=           6
  6.00000000E+00  7.00000000E+00  8.00000000E+00  1.00000000E+00  1.00000000E+00
  1.00000000E+00
Current cartesian coordinates              R   N=          18
 -3.03100733E-01  7.37987188E-01  0.00000000E+00  2.06130760E+00 -3.04548264E-01
 -9.82657589E-05 -2.28337498E+00 -4.64010914E-01 -1.32280829E-05  2.23539106E+00
 -2.21808873E+00  2.75900015E-04  3.64170257E+00  7.82034814E-01  5.02667151E-04
 -2.20634975E-01  2.85205594E+00  2.64561659E-05
Force Field                                I                0
Int Atom Types                             I   N=           6
           0           0           0           0           0           0
MM charges                                 R   N=           6
  0.00000000E+00  0.00000000E+00  0.00000000E+00  0.00000000E+00  0.00000000E+00
  0.00000000E+00
Integer atomic weights                     I   N=           6
          12          14          16           1           1           1
Real atomic weights                        R   N=           6
  1.20000000E+01  1.40030740E+01  1.59949146E+01  1.00782504E+00  1.00782504E+00
  1.00782504E+00
Atom fragment info                         I   N=           6
           0           0           0           0           0           0
Atom residue num                           I   N=           6
           0           0           0           0           0           0
Nuclear spins                              I   N=           6
           0           2           0           1           1           1
Nuclear ZEff                               R   N=           6
 -3.60000000E+00 -4.55000000E+00 -5.60000000E+00 -1.00000000E+00 -1.00000000E+00
 -1.00000000E+00
Nuclear QMom                               R   N=           6
  0.00000000E+00  2.04400000E+00  0.00000000E+00  0.00000000E+00  0.00000000E+00
  0.00000000E+00
Nuclear GFac                               R   N=           6
  0.00000000E+00  4.03761000E-01  0.00000000E+00  2.79284600E+00  2.79284600E+00
  2.79284600E+00
MicOpt                                     I   N=           6
          -1          -1          -1          -1          -1          -1
Number of contracted shells                I               21
Number of primitive shells                 I               48
Pure/Cartesian d shells                    I                1
Pure/Cartesian f shells                    I                0
Highest angular momentum                   I                2
Largest degree of contraction              I                6
Shell types                                I   N=          21
           0          -1          -1           2           0          -1
          -1           2           0          -1          -1           2
           0           0           1           0           0           1
           0           0           1
Number of primitives per shell             I   N=          21
           6           3           1           1           6           3
           1           1           6           3           1           1
           3           1           1           3           1           1
           3           1           1
Shell to atom map                          I   N=          21
           1           1           1           1           2           2
           2           2           3           3           3           3
           4           4           4           5           5           5
           6           6           6
Primitive exponents                        R   N=          48
  3.04752488E+03  4.57369518E+02  1.03948685E+02  2.92101553E+01  9.28666296E+00
  3.16392696E+00  7.86827235E+00  1.88128854E+00  5.44249258E-01  1.68714478E-01
  8.00000000E-01  4.17351146E+03  6.27457911E+02  1.42902093E+02  4.02343293E+01
  1.28202129E+01  4.39043701E+00  1.16263619E+01  2.71627981E+00  7.72218397E-01
  2.12031498E-01  8.00000000E-01  5.48467166E+03  8.25234946E+02  1.88046958E+02
  5.29645000E+01  1.68975704E+01  5.79963534E+00  1.55396162E+01  3.59993359E+00
  1.01376175E+00  2.70005823E-01  8.00000000E-01  1.87311370E+01  2.82539436E+00
  6.40121692E-01  1.61277759E-01  1.10000000E+00  1.87311370E+01  2.82539436E+00
  6.40121692E-01  1.61277759E-01  1.10000000E+00  1.87311370E+01  2.82539436E+00
  6.40121692E-01  1.61277759E-01  1.10000000E+00
Contraction coefficients                   R   N=          48
  1.83473713E-03  1.40373228E-02  6.88426223E-02  2.32184443E-01  4.67941348E-01
  3.62311985E-01 -1.19332420E-01 -1.60854152E-01  1.14345644E+00  1.00000000E+00
  1.00000000E+00  1.83477216E-03  1.39946270E-02  6.85865518E-02  2.32240873E-01
  4.69069948E-01  3.60455199E-01 -1.14961182E-01 -1.69117479E-01  1.14585195E+00
  1.00000000E+00  1.00000000E+00  1.83107443E-03  1.39501722E-02  6.84450781E-02
  2.32714336E-01  4.70192898E-01  3.58520853E-01 -1.10777550E-01 -1.48026263E-01
  1.13076702E+00  1.00000000E+00  1.00000000E+00  3.34946043E-02  2.34726953E-01
  8.13757326E-01  1.00000000E+00  1.00000000E+00  3.34946043E-02  2.34726953E-01
  8.13757326E-01  1.00000000E+00  1.00000000E+00  3.34946043E-02  2.34726953E-01
  8.13757326E-01  1.00000000E+00  1.00000000E+00
P(S=P) Contraction coefficients            R   N=          48
  0.00000000E+00  0.00000000E+00  0.00000000E+00  0.00000000E+00  0.00000000E+00
  0.00000000E+00  6.89990666E-02  3.16423961E-01  7.44308291E-01  1.00000000E+00
  0.00000000E+00  0.00000000E+00  0.00000000E+00  0.00000000E+00  0.00000000E+00
  0.00000000E+00  0.00000000E+00  6.75797439E-02  3.23907296E-01  7.40895140E-01
  1.00000000E+00  0.00000000E+00  0.00000000E+00  0.00000000E+00  0.00000000E+00
  0.00000000E+00  0.00000000E+00  0.00000000E+00  7.08742682E-02  3.39752839E-01
  7.27158577E-01  1.00000000E+00  0.00000000E+00  0.00000000E+00  0.00000000E+00
  0.00000000E+00  0.00000000E+00  0.00000000E+00  0.00000000E+00  0.00000000E+00
  0.00000000E+00  0.00000000E+00  0.00000000E+00  0.00000000E+00  0.00000000E+00
  0.00000000E+00  0.00000000E+00  0.00000000E+00
Coordinates of each shell                  R   N=          63
 -3.03100733E-01  7.37987188E-01  0.00000000E+00 -3.03100733E-01  7.37987188E-01
  0.00000000E+00 -3.03100733E-01  7.37987188E-01  0.00000000E+00 -3.03100733E-01
  7.37987188E-01  0.00000000E+00  2.06130760E+00 -3.04548264E-01 -9.82657589E-05
  2.06130760E+00 -3.04548264E-01 -9.82657589E-05  2.06130760E+00 -3.04548264E-01
 -9.82657589E-05  2.06130760E+00 -3.04548264E-01 -9.82657589E-05 -2.28337498E+00
 -4.64010914E-01 -1.32280829E-05 -2.28337498E+00 -4.64010914E-01 -1.32280829E-05
 -2.28337498E+00 -4.64010914E-01 -1.32280829E-05 -2.28337498E+00 -4.64010914E-01
 -1.32280829E-05  2.23539106E+00 -2.21808873E+00  2.75900015E-04  2.23539106E+00
 -2.21808873E+00  2.75900015E-04  2.23539106E+00 -2.21808873E+00  2.75900015E-04
  3.64170257E+00  7.82034814E-01  5.02667151E-04  3.64170257E+00  7.82034814E-01
  5.02667151E-04  3.64170257E+00  7.82034814E-01  5.02667151E-04 -2.20634975E-01
  2.85205594E+00  2.64561659E-05 -2.20634975E-01  2.85205594E+00  2.64561659E-05
 -2.20634975E-01  2.85205594E+00  2.64561659E-05
Density Number of contracted shells        I               72
Density Number of primitive shells         I               72
Density Pure/Cartesian d shells            I                0
Density Pure/Cartesian f shells            I                0
Density Highest angular momentum           I                3
Density Largest degree of contraction      I                1
Density Shell types                        I   N=          72
           0           0           0           0          -1          -2
          -1          -2          -1          -2          -1          -2
          -3          -1          -2          -3           0           0
           0           0          -1          -2          -1          -2
          -1          -2          -1          -2          -3          -1
          -2          -3           0           0           0           0
          -1          -2          -1          -2          -1          -2
          -1          -2          -3          -1          -2          -3
           0           0          -1          -2          -1          -2
          -1          -2           0           0          -1          -2
          -1          -2          -1          -2           0           0
          -1          -2          -1          -2          -1          -2
Density Number of primitives per shell     I   N=          72
           1           1           1           1           1           1
           1           1           1           1           1           1
           1           1           1           1           1           1
           1           1           1           1           1           1
           1           1           1           1           1           1
           1           1           1           1           1           1
           1           1           1           1           1           1
           1           1           1           1           1           1
           1           1           1           1           1           1
           1           1           1           1           1           1
           1           1           1           1           1           1
           1           1           1           1           1           1
Density Shell to atom map                  I   N=          72
           1           1           1           1           1           1
           1           1           1           1           1           1
           1           1           1           1           2           2
           2           2           2           2           2           2
           2           2           2           2           2           2
           2           2           3           3           3           3
           3           3           3           3           3           3
           3           3           3           3           3           3
           4           4           4           4           4           4
           4           4           5           5           5           5
           5           5           5           5           6           6
           6           6           6           6           6           6
Density Primitive exponents                R   N=          72
  6.09504976E+03  9.14739036E+02  2.07897370E+02  5.84203106E+01  1.70961976E+01
  1.70961976E+01  6.32785392E+00  6.32785392E+00  3.76257708E+00  3.76257708E+00
  1.31969604E+00  1.31969604E+00  1.31969604E+00  3.37428956E-01  3.37428956E-01
  3.37428956E-01  8.34702292E+03  1.25491582E+03  2.85804186E+02  8.04686586E+01
  2.44174064E+01  2.44174064E+01  8.78087402E+00  8.78087402E+00  5.43255961E+00
  5.43255961E+00  1.57197292E+00  1.57197292E+00  1.57197292E+00  4.24062995E-01
  4.24062995E-01  4.24062995E-01  1.09693433E+04  1.65046989E+03  3.76093916E+02
  1.05929000E+02  3.24087494E+01  3.24087494E+01  1.15992707E+01  1.15992707E+01
  7.19986717E+00  7.19986717E+00  1.80112121E+00  1.80112121E+00  1.80112121E+00
  5.40011645E-01  5.40011645E-01  5.40011645E-01  3.74622739E+01  5.65078873E+00
  2.20000000E+00  2.20000000E+00  1.28024338E+00  1.28024338E+00  3.22555518E-01
  3.22555518E-01  3.74622739E+01  5.65078873E+00  2.20000000E+00  2.20000000E+00
  1.28024338E+00  1.28024338E+00  3.22555518E-01  3.22555518E-01  3.74622739E+01
  5.65078873E+00  2.20000000E+00  2.20000000E+00  1.28024338E+00  1.28024338E+00
  3.22555518E-01  3.22555518E-01
Density Contraction coefficients           R   N=          72
  1.00000000E+00  1.00000000E+00  1.00000000E+00  1.00000000E+00  1.00000000E+00
  1.00000000E+00  1.00000000E+00  1.00000000E+00  1.00000000E+00  1.00000000E+00
  1.00000000E+00  1.00000000E+00  1.00000000E+00  1.00000000E+00  1.00000000E+00
  1.00000000E+00  1.00000000E+00  1.00000000E+00  1.00000000E+00  1.00000000E+00
  1.00000000E+00  1.00000000E+00  1.00000000E+00  1.00000000E+00  1.00000000E+00
  1.00000000E+00  1.00000000E+00  1.00000000E+00  1.00000000E+00  1.00000000E+00
  1.00000000E+00  1.00000000E+00  1.00000000E+00  1.00000000E+00  1.00000000E+00
  1.00000000E+00  1.00000000E+00  1.00000000E+00  1.00000000E+00  1.00000000E+00
  1.00000000E+00  1.00000000E+00  1.00000000E+00  1.00000000E+00  1.00000000E+00
  1.00000000E+00  1.00000000E+00  1.00000000E+00  1.00000000E+00  1.00000000E+00
  1.00000000E+00  1.00000000E+00  1.00000000E+00  1.00000000E+00  1.00000000E+00
  1.00000000E+00  1.00000000E+00  1.00000000E+00  1.00000000E+00  1.00000000E+00
  1.00000000E+00  1.00000000E+00  1.00000000E+00  1.00000000E+00  1.00000000E+00
  1.00000000E+00  1.00000000E+00  1.00000000E+00  1.00000000E+00  1.00000000E+00
  1.00000000E+00  1.00000000E+00
Density P(S=P) Contraction coefficients    R   N=          72
  0.00000000E+00  0.00000000E+00  0.00000000E+00  0.00000000E+00  1.00000000E+00
  0.00000000E+00  1.00000000E+00  0.00000000E+00  1.00000000E+00  0.00000000E+00
  1.00000000E+00  0.00000000E+00  0.00000000E+00  1.00000000E+00  0.00000000E+00
  0.00000000E+00  0.00000000E+00  0.00000000E+00  0.00000000E+00  0.00000000E+00
  1.00000000E+00  0.00000000E+00  1.00000000E+00  0.00000000E+00  1.00000000E+00
  0.00000000E+00  1.00000000E+00  0.00000000E+00  0.00000000E+00  1.00000000E+00
  0.00000000E+00  0.00000000E+00  0.00000000E+00  0.00000000E+00  0.00000000E+00
  0.00000000E+00  1.00000000E+00  0.00000000E+00  1.00000000E+00  0.00000000E+00
  1.00000000E+00  0.00000000E+00  1.00000000E+00  0.00000000E+00  0.00000000E+00
  1.00000000E+00  0.00000000E+00  0.00000000E+00  0.00000000E+00  0.00000000E+00
  1.00000000E+00  0.00000000E+00  1.00000000E+00  0.00000000E+00  1.00000000E+00
  0.00000000E+00  0.00000000E+00  0.00000000E+00  1.00000000E+00  0.00000000E+00
  1.00000000E+00  0.00000000E+00  1.00000000E+00  0.00000000E+00  0.00000000E+00
  0.00000000E+00  1.00000000E+00  0.00000000E+00  1.00000000E+00  0.00000000E+00
  1.00000000E+00  0.00000000E+00
Density Coordinates of each shell          R   N=         216
 -3.03100733E-01  7.37987188E-01  0.00000000E+00 -3.03100733E-01  7.37987188E-01
  0.00000000E+00 -3.03100733E-01  7.37987188E-01  0.00000000E+00 -3.03100733E-01
  7.37987188E-01  0.00000000E+00 -3.03100733E-01  7.37987188E-01  0.00000000E+00
 -3.03100733E-01  7.37987188E-01  0.00000000E+00 -3.03100733E-01  7.37987188E-01
  0.00000000E+00 -3.03100733E-01  7.37987188E-01  0.00000000E+00 -3.03100733E-01
  7.37987188E-01  0.00000000E+00 -3.03100733E-01  7.37987188E-01  0.00000000E+00
 -3.03100733E-01  7.37987188E-01  0.00000000E+00 -3.03100733E-01  7.37987188E-01
  0.00000000E+00 -3.03100733E-01  7.37987188E-01  0.00000000E+00 -3.03100733E-01
  7.37987188E-01  0.00000000E+00 -3.03100733E-01  7.37987188E-01  0.00000000E+00
 -3.03100733E-01  7.37987188E-01  0.00000000E+00  2.06130760E+00 -3.04548264E-01
 -9.82657589E-05  2.06130760E+00 -3.04548264E-01 -9.82657589E-05  2.06130760E+00
 -3.04548264E-01 -9.82657589E-05  2.06130760E+00 -3.04548264E-01 -9.82657589E-05
  2.06130760E+00 -3.04548264E-01 -9.82657589E-05  2.06130760E+00 -3.04548264E-01
 -9.82657589E-05  2.06130760E+00 -3.04548264E-01 -9.82657589E-05  2.06130760E+00
 -3.04548264E-01 -9.82657589E-05  2.06130760E+00 -3.04548264E-01 -9.82657589E-05
  2.06130760E+00 -3.04548264E-01 -9.82657589E-05  2.06130760E+00 -3.04548264E-01
 -9.82657589E-05  2.06130760E+00 -3.04548264E-01 -9.82657589E-05  2.06130760E+00
 -3.04548264E-01 -9.82657589E-05  2.06130760E+00 -3.04548264E-01 -9.82657589E-05
  2.06130760E+00 -3.04548264E-01 -9.82657589E-05  2.06130760E+00 -3.04548264E-01
 -9.82657589E-05 -2.28337498E+00 -4.64010914E-01 -1.32280829E-05 -2.28337498E+00
 -4.64010914E-01 -1.32280829E-05 -2.28337498E+00 -4.64010914E-01 -1.32280829E-05
 -2.28337498E+00 -4.64010914E-01 -1.32280829E-05 -2.28337498E+00 -4.64010914E-01
 -1.32280829E-05 -2.28337498E+00 -4.64010914E-01 -1.32280829E-05 -2.28337498E+00
 -4.64010914E-01 -1.32280829E-05 -2.28337498E+00 -4.64010914E-01 -1.32280829E-05
 -2.28337498E+00 -4.64010914E-01 -1.32280829E-05 -2.28337498E+00 -4.64010914E-01
 -1.32280829E-05 -2.28337498E+00 -4.64010914E-01 -1.32280829E-05 -2.28337498E+00
 -4.64010914E-01 -1.32280829E-05 -2.28337498E+00 -4.64010914E-01 -1.32280829E-05
 -2.28337498E+00 -4.64010914E-01 -1.32280829E-05 -2.28337498E+00 -4.64010914E-01
 -1.32280829E-05 -2.28337498E+00 -4.64010914E-01 -1.32280829E-05  2.23539106E+00
 -2.21808873E+00  2.75900015E-04  2.23539106E+00 -2.21808873E+00  2.75900015E-04
  2.23539106E+00 -2.21808873E+00  2.75900015E-04  2.23539106E+00 -2.21808873E+00
  2.75900015E-04  2.23539106E+00 -2.21808873E+00  2.75900015E-04  2.23539106E+00
 -2.21808873E+00  2.75900015E-04  2.23539106E+00 -2.21808873E+00  2.75900015E-04
  2.23539106E+00 -2.21808873E+00  2.75900015E-04  3.64170257E+00  7.82034814E-01
  5.02667151E-04  3.64170257E+00  7.82034814E-01  5.02667151E-04  3.64170257E+00
  7.82034814E-01  5.02667151E-04  3.64170257E+00  7.82034814E-01  5.02667151E-04
  3.64170257E+00  7.82034814E-01  5.02667151E-04  3.64170257E+00  7.82034814E-01
  5.02667151E-04  3.64170257E+00  7.82034814E-01  5.02667151E-04  3.64170257E+00
  7.82034814E-01  5.02667151E-04 -2.20634975E-01  2.85205594E+00  2.64561659E-05
 -2.20634975E-01  2.85205594E+00  2.64561659E-05 -2.20634975E-01  2.85205594E+00
  2.64561659E-05 -2.20634975E-01  2.85205594E+00  2.64561659E-05 -2.20634975E-01
  2.85205594E+00  2.64561659E-05 -2.20634975E-01  2.85205594E+00  2.64561659E-05
 -2.20634975E-01  2.85205594E+00  2.64561659E-05 -2.20634975E-01  2.85205594E+00
  2.64561659E-05
Constraint Structure                       R   N=          18
 -3.03100733E-01  7.37987188E-01  0.00000000E+00  2.06130760E+00 -3.04548264E-01
 -9.82657589E-05 -2.28337498E+00 -4.64010914E-01 -1.32280829E-05  2.23539106E+00
 -2.21808873E+00  2.75900015E-04  3.64170257E+00  7.82034814E-01  5.02667151E-04
 -2.20634975E-01  2.85205594E+00  2.64561659E-05
Num ILSW                                   I              100
ILSW                                       I   N=         100
           0           1           0           0           2           0
           0           0           0           0       20419          -1
           0           0           0           0           0           0
           0           0           1           0           1           0
           1           1           0           0           0           0
           0           0      100000           0          -1           0
           0           0           0           0           0           0
           0           0           0           1           0           0
           0           0           1           0           0           0
           0           0           4          40           0           0
           0           0          40           0           0           0
           0           0           0           0           0           0
           0           0           0           0           0           0
           0           0           0           0           0           0
           0           0           0           0           0           0
           0           0           0           0           0           0
           0           0           0           0
Num RLSW                                   I               40
RLSW                                       R   N=          40
  1.00000000E+00  1.00000000E+00  1.00000000E+00  8.10000000E-01  1.00000000E+00
  0.00000000E+00  3.30000000E-01  1.90000000E-01  0.00000000E+00  4.60000000E-01
  0.00000000E+00  3.30000000E-01  1.90000000E-01  0.00000000E+00  4.60000000E-01
  0.00000000E+00  0.00000000E+00  1.00000000E+00  0.00000000E+00  0.00000000E+00
  0.00000000E+00  0.00000000E+00  1.00000000E+00  0.00000000E+00  0.00000000E+00
  0.00000000E+00  0.00000000E+00  1.00000000E+00  0.00000000E+00  0.00000000E+00
  0.00000000E+00  0.00000000E+00  0.00000000E+00  0.00000000E+00  0.00000000E+00
  0.00000000E+00  0.00000000E+00  0.00000000E+00  1.00000000E+00  1.00000000E+00
MxBond                                     I                3
NBond                                      I   N=           6
           3           3           1           1           1           1
IBond                                      I   N=          18
           2           3           6           1           4           5
           1           0           0           2           0           0
           2           0           0           1           0           0
RBond                                      R   N=          18
  1.41000000E+00  2.00000000E+00  1.00000000E+00  1.41000000E+00  1.00000000E+00
  1.00000000E+00  2.00000000E+00  0.00000000E+00  0.00000000E+00  1.00000000E+00
  0.00000000E+00  0.00000000E+00  1.00000000E+00  0.00000000E+00  0.00000000E+00
  1.00000000E+00  0.00000000E+00  0.00000000E+00
Virial Ratio                               R      2.009485144639998E+00
SCF Energy                                 R     -1.698224921845025E+02
CIS Energy                                 R     -1.696154702798841E+02
Total Energy                               R     -1.696154702798841E+02
Post-SCF wavefunction norm                 R      1.000000000000000E+00
RMS Force                                  R      5.197017978151711E-02
RMS Density                                R      4.943813097502379E-09
External E-field                           R   N=          35
  0.00000000E+00  0.00000000E+00  0.00000000E+00  0.00000000E+00  0.00000000E+00
  0.00000000E+00  0.00000000E+00  0.00000000E+00  0.00000000E+00  0.00000000E+00
  0.00000000E+00  0.00000000E+00  0.00000000E+00  0.00000000E+00  0.00000000E+00
  0.00000000E+00  0.00000000E+00  0.00000000E+00  0.00000000E+00  0.00000000E+00
  0.00000000E+00  0.00000000E+00  0.00000000E+00  0.00000000E+00  0.00000000E+00
  0.00000000E+00  0.00000000E+00  0.00000000E+00  0.00000000E+00  0.00000000E+00
  0.00000000E+00  0.00000000E+00  0.00000000E+00  0.00000000E+00  0.00000000E+00
IOpCl                                      I                0
IROHF                                      I                0
Alpha Orbital Energies                     R   N=          60
 -1.91899363E+01 -1.44385734E+01 -1.03685147E+01 -1.10651826E+00 -9.84915164E-01
 -6.97301172E-01 -6.22576378E-01 -5.43791833E-01 -4.75743865E-01 -4.68244572E-01
 -3.33089452E-01 -3.18562069E-01  8.21561067E-02  1.21928302E-01  1.58626636E-01
  2.13739220E-01  3.18993043E-01  3.96912223E-01  5.93519381E-01  6.03648231E-01
  7.06899782E-01  7.35972736E-01  7.47670543E-01  7.76626028E-01  8.83205143E-01
  8.99122561E-01  9.07123341E-01  9.32160684E-01  1.07053593E+00  1.14024789E+00
  1.27083206E+00  1.33773514E+00  1.39889954E+00  1.45193459E+00  1.57183290E+00
  1.57353246E+00  1.82390625E+00  1.89591849E+00  1.90431479E+00  2.03605849E+00
  2.07107849E+00  2.13911968E+00  2.18418414E+00  2.19068103E+00  2.33369291E+00
  2.42559773E+00  2.55805800E+00  2.58303446E+00  2.67771931E+00  2.79873605E+00
  2.81797941E+00  2.91121230E+00  3.05103077E+00  3.06325142E+00  3.29719449E+00
  3.50691654E+00  3.69053065E+00  3.93391183E+00  4.01368780E+00  4.44375420E+00
Alpha MO coefficients                      R   N=        3600
  1.32424217E-05  5.76250287E-04  1.49038839E-06 -5.29782748E-05 -3.36274538E-09
 -2.61333195E-03  2.02028498E-03  1.79558531E-03  1.71757945E-08 -6.24537677E-04
 -2.28278450E-04 -1.23959436E-05 -4.18603074E-04 -5.20778480E-09 -8.16088111E-10
 -5.20744261E-06  6.89760639E-06 -1.44462075E-05  4.49869817E-05 -3.61551214E-09
  1.29949488E-04 -2.48664843E-04 -6.95277120E-04  1.07339095E-08 -1.30477327E-04
  9.10339800E-05 -1.18467577E-05 -1.27567462E-04 -2.47374109E-08 -3.74212687E-08
  9.92830324E-01  2.57644522E-02  1.04593059E-03  6.00734475E-04  2.93230022E-09
  1.27044808E-02  1.14208298E-03  6.00241667E-04  1.37342322E-08 -7.54661078E-03
 -7.77994056E-03 -7.90728320E-03  2.32206750E-04  5.30828678E-09  1.19452113E-09
 -1.61784141E-04 -2.66956079E-04 -3.39971211E-05 -7.53806732E-05  3.39597929E-08
  1.83477403E-04  1.66840939E-05 -9.68179864E-06 -5.85239223E-05 -5.06364745E-08
 -3.47469528E-05 -5.64598969E-04  1.31386547E-06  2.37244905E-05 -9.85515892E-10
  3.35653309E-05  2.13258953E-04  3.06929227E-04 -1.48914009E-04 -2.60395871E-08
 -3.58102812E-04 -9.92026262E-05 -2.43235168E-06  9.07444788E-08  1.26870258E-04
  9.10806585E-05 -1.56341854E-05 -3.11252253E-05 -1.95110111E-08  4.99304329E-09
  9.92645917E-01  3.47676577E-02  1.22968289E-04 -2.93700226E-06  5.61321896E-07
  4.15059128E-03  6.25682962E-05 -4.16167717E-05 -1.51107036E-07 -8.33435301E-03
 -8.26807980E-03 -8.32249397E-03  5.21643967E-05  2.92911433E-08 -1.31130277E-09
  4.61853334E-06  2.69635060E-05 -2.57021313E-05 -3.18472272E-06 -9.91316724E-10
 -5.46328093E-05 -9.92363515E-05  3.04207299E-05 -2.35457721E-08 -9.01944916E-05
  2.83082883E-05  1.05172929E-05  4.25377938E-06 -2.27616324E-09 -8.15127198E-09
  3.09465763E-04 -5.23200506E-04  4.56737529E-06 -2.00337040E-05 -6.94561349E-09
  2.95200524E-04 -5.18431177E-04  3.65477146E-05  2.32691304E-05  1.01956590E-09
 -4.89001716E-05  1.21314587E-05 -4.86358647E-05  6.20680414E-05 -3.55260761E-09
  9.92798641E-01  4.80844228E-02 -4.08094475E-06 -5.13353025E-04 -7.53976506E-08
 -6.71941499E-03 -2.08012528E-03 -2.24181750E-03  3.45734052E-08 -8.43463479E-03
 -9.01425277E-03 -9.77036389E-03  3.03271707E-04 -1.66354627E-08  2.34042022E-08
 -2.02213704E-04 -7.54703677E-05  2.08082036E-04 -1.61758882E-04 -5.18224447E-08
  1.53951639E-03  4.08739820E-04  9.78926720E-04 -2.49851223E-08 -6.93079226E-04
 -4.73914071E-04 -1.88024366E-05  2.16680275E-04  1.98411289E-08  3.31407129E-08
 -1.31771603E-04  4.05585961E-04  2.52191799E-05  3.69186017E-06  6.38316074E-09
 -2.85298101E-03 -1.68065039E-03 -8.54120999E-04 -3.15906543E-08 -1.53773937E-04
  1.36446373E-04  3.80745002E-04 -2.51938173E-04 -2.52577326E-09 -4.01568140E-09
  2.62858423E-04  4.28398402E-04 -1.10644400E-04  2.22303973E-04 -6.19853501E-08
 -1.19687161E-04 -1.40347690E-04 -1.92643308E-04 -1.14200061E-05 -1.09373167E-08
 -2.97739716E-04  2.69743507E-03  7.07965414E-05  1.83472886E-04  1.11221650E-09
 -1.30654630E-01  2.57644940E-01 -1.06664552E-01 -1.05370096E-01 -1.79073310E-06
  7.70768382E-02  9.55584075E-03  2.73796193E-02  1.38359853E-06  1.18159266E-02
 -1.07351838E-02 -2.19922410E-02  1.71970200E-02  2.35972818E-07  2.36230213E-07
 -6.33058500E-02  1.28967083E-01 -4.57970885E-02  9.35695457E-03  1.14748431E-05
  1.20525785E-01 -2.55585856E-02 -2.45762537E-03  4.85555108E-06  7.67046723E-03
 -2.77662896E-03 -6.29336782E-03 -3.01949579E-03 -4.67974721E-07  1.24782870E-07
 -1.78433119E-01  3.84978180E-01  1.33099227E-01  7.43186159E-02  8.45672658E-07
  3.65442536E-01  4.91354771E-02  2.18940078E-02  3.05041859E-07  5.78064750E-03
 -6.24473117E-03 -7.78875433E-03  9.99156947E-03  7.26697285E-08  1.18056016E-08
  3.22252934E-02  2.80756906E-03 -1.37101372E-03  4.90557366E-03 -6.68794926E-07
  2.86410150E-02  2.95511719E-03 -3.13974754E-03 -1.90875919E-03 -1.00551626E-06
  3.40195876E-02 -9.97743334E-03 -1.63870619E-03 -6.88857240E-03 -1.03596080E-07
 -3.28986626E-02  6.72250744E-02  2.11476054E-01  3.11291589E-03  2.56838217E-07
  6.80359290E-03  2.27309072E-03  1.24169927E-02  1.96455516E-07  6.56055159E-03
 -2.36446137E-03 -3.15784397E-03 -2.23628450E-02 -2.87170773E-07  1.37375886E-07
 -1.89078401E-01  3.90450061E-01 -1.66728286E-02  2.08938591E-02  4.40531026E-05
  4.02568955E-01 -1.09859551E-02  1.26508367E-02  2.05822236E-05 -3.16383242E-03
 -3.76259299E-03 -1.71392146E-02 -2.68525276E-03  1.80878340E-06  7.02758530E-07
  8.64788918E-02 -1.91379261E-01 -3.44558954E-02 -3.76812437E-02 -4.93366385E-07
 -1.76848745E-01 -2.08809858E-03 -1.09215112E-02 -3.16359183E-07  2.38988402E-03
  4.92509382E-05  2.09926521E-03 -2.74766532E-03  6.46209469E-09 -1.07310991E-08
  1.15716375E-01  1.38417697E-02 -1.21989806E-03  1.56662794E-02 -2.23966288E-06
  1.25139984E-01  1.74700156E-02 -1.40573444E-02 -9.19326445E-03 -4.48672339E-06
  2.01128812E-02  3.21453190E-03  2.11762129E-03 -1.97990489E-03  2.37934530E-08
 -1.33445350E-01  2.90157776E-01  1.58233448E-01  1.32765400E-01 -1.20897514E-05
  2.14005813E-01  5.29057178E-02  6.02404429E-02  2.80390643E-06 -9.46431598E-03
 -4.93403371E-03 -1.33712924E-02 -6.92206276E-03 -1.97054527E-06  1.14906154E-06
  4.72312224E-02 -1.01100496E-01 -2.49454275E-01  2.21999613E-01 -4.73196020E-05
 -1.40129101E-01 -1.06712951E-01  9.01738291E-02 -2.41938647E-05  7.49791278E-03
 -2.85286214E-03  3.70663888E-03 -1.10551050E-02 -6.28302373E-06  4.82935355E-06
  6.24918078E-02 -1.44569411E-01  4.05988474E-02  4.72817461E-02 -3.96333444E-06
 -1.55692732E-01  3.41304304E-02  3.02112611E-02 -3.53350927E-06  5.45643377E-03
  2.90935951E-03 -1.35046647E-03  6.42551275E-03 -5.12606676E-07 -3.25501501E-07
 -1.65346331E-01 -7.11633097E-02 -3.73799404E-03 -1.22867346E-02  2.47975672E-06