Title                                                                   
Force     RTD-PBEPBE-FC                                               6-31G(d,p)          
Number of atoms                            I                6
Info1-9                                    I   N=           9
          14          14           0           0           0         100
           5         218         901
Charge                                     I                0
Multiplicity                               I                1
Number of electrons                        I               24
Number of alpha electrons                  I               12
Number of beta electrons                   I               12
Number of basis functions                  I               60
Number of independent functions            I               60
Number of point charges in /Mol/           I                0
Number of translation vectors              I                0
Atomic numbers                             I   N=           6
           6           7           8           1           1           1
Nuclear charges                            R   N=           6
  6.00000000E+00  7.00000000E+00  8.00000000E+00  1.00000000E+00  1.00000000E+00
  1.00000000E+00
Current cartesian coordinates              R   N=          18
 -3.03100733E-01  7.37987188E-01  0.00000000E+00  2.06130760E+00 -3.04548264E-01
 -9.82657589E-05 -2.28337498E+00 -4.64010914E-01 -1.32280829E-05  2.23539106E+00
 -2.21808873E+00  2.75900015E-04  3.64170257E+00  7.82034814E-01  5.02667151E-04
 -2.20634975E-01  2.85205594E+00  2.64561659E-05
Force Field                                I                0
Int Atom Types                             I   N=           6
           0           0           0           0           0           0
MM charges                                 R   N=           6
  0.00000000E+00  0.00000000E+00  0.00000000E+00  0.00000000E+00  0.00000000E+00
  0.00000000E+00
Integer atomic weights                     I   N=           6
          12          14          16           1           1           1
Real atomic weights                        R   N=           6
  1.20000000E+01  1.40030740E+01  1.59949146E+01  1.00782504E+00  1.00782504E+00
  1.00782504E+00
Atom fragment info                         I   N=           6
           0           0           0           0           0           0
Atom residue num                           I   N=           6
           0           0           0           0           0           0
Nuclear spins                              I   N=           6
           0           2           0           1           1           1
Nuclear ZEff                               R   N=           6
 -3.60000000E+00 -4.55000000E+00 -5.60000000E+00 -1.00000000E+00 -1.00000000E+00
 -1.00000000E+00
Nuclear QMom                               R   N=           6
  0.00000000E+00  2.04400000E+00  0.00000000E+00  0.00000000E+00  0.00000000E+00
  0.00000000E+00
Nuclear GFac                               R   N=           6
  0.00000000E+00  4.03761000E-01  0.00000000E+00  2.79284600E+00  2.79284600E+00
  2.79284600E+00
MicOpt                                     I   N=           6
          -1          -1          -1          -1          -1          -1
Number of contracted shells                I               21
Number of primitive shells                 I               48
Pure/Cartesian d shells                    I                1
Pure/Cartesian f shells                    I                0
Highest angular momentum                   I                2
Largest degree of contraction              I                6
Shell types                                I   N=          21
           0          -1          -1           2           0          -1
          -1           2           0          -1          -1           2
           0           0           1           0           0           1
           0           0           1
Number of primitives per shell             I   N=          21
           6           3           1           1           6           3
           1           1           6           3           1           1
           3           1           1           3           1           1
           3           1           1
Shell to atom map                          I   N=          21
           1           1           1           1           2           2
           2           2           3           3           3           3
           4           4           4           5           5           5
           6           6           6
Primitive exponents                        R   N=          48
  3.04752488E+03  4.57369518E+02  1.03948685E+02  2.92101553E+01  9.28666296E+00
  3.16392696E+00  7.86827235E+00  1.88128854E+00  5.44249258E-01  1.68714478E-01
  8.00000000E-01  4.17351146E+03  6.27457911E+02  1.42902093E+02  4.02343293E+01
  1.28202129E+01  4.39043701E+00  1.16263619E+01  2.71627981E+00  7.72218397E-01
  2.12031498E-01  8.00000000E-01  5.48467166E+03  8.25234946E+02  1.88046958E+02
  5.29645000E+01  1.68975704E+01  5.79963534E+00  1.55396162E+01  3.59993359E+00
  1.01376175E+00  2.70005823E-01  8.00000000E-01  1.87311370E+01  2.82539436E+00
  6.40121692E-01  1.61277759E-01  1.10000000E+00  1.87311370E+01  2.82539436E+00
  6.40121692E-01  1.61277759E-01  1.10000000E+00  1.87311370E+01  2.82539436E+00
  6.40121692E-01  1.61277759E-01  1.10000000E+00
Contraction coefficients                   R   N=          48
  1.83473713E-03  1.40373228E-02  6.88426223E-02  2.32184443E-01  4.67941348E-01
  3.62311985E-01 -1.19332420E-01 -1.60854152E-01  1.14345644E+00  1.00000000E+00
  1.00000000E+00  1.83477216E-03  1.39946270E-02  6.85865518E-02  2.32240873E-01
  4.69069948E-01  3.60455199E-01 -1.14961182E-01 -1.69117479E-01  1.14585195E+00
  1.00000000E+00  1.00000000E+00  1.83107443E-03  1.39501722E-02  6.84450781E-02
  2.32714336E-01  4.70192898E-01  3.58520853E-01 -1.10777550E-01 -1.48026263E-01
  1.13076702E+00  1.00000000E+00  1.00000000E+00  3.34946043E-02  2.34726953E-01
  8.13757326E-01  1.00000000E+00  1.00000000E+00  3.34946043E-02  2.34726953E-01
  8.13757326E-01  1.00000000E+00  1.00000000E+00  3.34946043E-02  2.34726953E-01
  8.13757326E-01  1.00000000E+00  1.00000000E+00
P(S=P) Contraction coefficients            R   N=          48
  0.00000000E+00  0.00000000E+00  0.00000000E+00  0.00000000E+00  0.00000000E+00
  0.00000000E+00  6.89990666E-02  3.16423961E-01  7.44308291E-01  1.00000000E+00
  0.00000000E+00  0.00000000E+00  0.00000000E+00  0.00000000E+00  0.00000000E+00
  0.00000000E+00  0.00000000E+00  6.75797439E-02  3.23907296E-01  7.40895140E-01
  1.00000000E+00  0.00000000E+00  0.00000000E+00  0.00000000E+00  0.00000000E+00
  0.00000000E+00  0.00000000E+00  0.00000000E+00  7.08742682E-02  3.39752839E-01
  7.27158577E-01  1.00000000E+00  0.00000000E+00  0.00000000E+00  0.00000000E+00
  0.00000000E+00  0.00000000E+00  0.00000000E+00  0.00000000E+00  0.00000000E+00
  0.00000000E+00  0.00000000E+00  0.00000000E+00  0.00000000E+00  0.00000000E+00
  0.00000000E+00  0.00000000E+00  0.00000000E+00
Coordinates of each shell                  R   N=          63
 -3.03100733E-01  7.37987188E-01  0.00000000E+00 -3.03100733E-01  7.37987188E-01
  0.00000000E+00 -3.03100733E-01  7.37987188E-01  0.00000000E+00 -3.03100733E-01
  7.37987188E-01  0.00000000E+00  2.06130760E+00 -3.04548264E-01 -9.82657589E-05
  2.06130760E+00 -3.04548264E-01 -9.82657589E-05  2.06130760E+00 -3.04548264E-01
 -9.82657589E-05  2.06130760E+00 -3.04548264E-01 -9.82657589E-05 -2.28337498E+00
 -4.64010914E-01 -1.32280829E-05 -2.28337498E+00 -4.64010914E-01 -1.32280829E-05
 -2.28337498E+00 -4.64010914E-01 -1.32280829E-05 -2.28337498E+00 -4.64010914E-01
 -1.32280829E-05  2.23539106E+00 -2.21808873E+00  2.75900015E-04  2.23539106E+00
 -2.21808873E+00  2.75900015E-04  2.23539106E+00 -2.21808873E+00  2.75900015E-04
  3.64170257E+00  7.82034814E-01  5.02667151E-04  3.64170257E+00  7.82034814E-01
  5.02667151E-04  3.64170257E+00  7.82034814E-01  5.02667151E-04 -2.20634975E-01
  2.85205594E+00  2.64561659E-05 -2.20634975E-01  2.85205594E+00  2.64561659E-05
 -2.20634975E-01  2.85205594E+00  2.64561659E-05
Density Number of contracted shells        I               72
Density Number of primitive shells         I               72
Density Pure/Cartesian d shells            I                0
Density Pure/Cartesian f shells            I                0
Density Highest angular momentum           I                3
Density Largest degree of contraction      I                1
Density Shell types                        I   N=          72
           0           0           0           0          -1          -2
          -1          -2          -1          -2          -1          -2
          -3          -1          -2          -3           0           0
           0           0          -1          -2          -1          -2
          -1          -2          -1          -2          -3          -1
          -2          -3           0           0           0           0
          -1          -2          -1          -2          -1          -2
          -1          -2          -3          -1          -2          -3
           0           0          -1          -2          -1          -2
          -1          -2           0           0          -1          -2
          -1          -2          -1          -2           0           0
          -1          -2          -1          -2          -1          -2
Density Number of primitives per shell     I   N=          72
           1           1           1           1           1           1
           1           1           1           1           1           1
           1           1           1           1           1           1
           1           1           1           1           1           1
           1           1           1           1           1           1
           1           1           1           1           1           1
           1           1           1           1           1           1
           1           1           1           1           1           1
           1           1           1           1           1           1
           1           1           1           1           1           1
           1           1           1           1           1           1
           1           1           1           1           1           1
Density Shell to atom map                  I   N=          72
           1           1           1           1           1           1
           1           1           1           1           1           1
           1           1           1           1           2           2
           2           2           2           2           2           2
           2           2           2           2           2           2
           2           2           3           3           3           3
           3           3           3           3           3           3
           3           3           3           3           3           3
           4           4           4           4           4           4
           4           4           5           5           5           5
           5           5           5           5           6           6
           6           6           6           6           6           6
Density Primitive exponents                R   N=          72
  6.09504976E+03  9.14739036E+02  2.07897370E+02  5.84203106E+01  1.70961976E+01
  1.70961976E+01  6.32785392E+00  6.32785392E+00  3.76257708E+00  3.76257708E+00
  1.31969604E+00  1.31969604E+00  1.31969604E+00  3.37428956E-01  3.37428956E-01
  3.37428956E-01  8.34702292E+03  1.25491582E+03  2.85804186E+02  8.04686586E+01
  2.44174064E+01  2.44174064E+01  8.78087402E+00  8.78087402E+00  5.43255961E+00
  5.43255961E+00  1.57197292E+00  1.57197292E+00  1.57197292E+00  4.24062995E-01
  4.24062995E-01  4.24062995E-01  1.09693433E+04  1.65046989E+03  3.76093916E+02
  1.05929000E+02  3.24087494E+01  3.24087494E+01  1.15992707E+01  1.15992707E+01
  7.19986717E+00  7.19986717E+00  1.80112121E+00  1.80112121E+00  1.80112121E+00
  5.40011645E-01  5.40011645E-01  5.40011645E-01  3.74622739E+01  5.65078873E+00
  2.20000000E+00  2.20000000E+00  1.28024338E+00  1.28024338E+00  3.22555518E-01
  3.22555518E-01  3.74622739E+01  5.65078873E+00  2.20000000E+00  2.20000000E+00
  1.28024338E+00  1.28024338E+00  3.22555518E-01  3.22555518E-01  3.74622739E+01
  5.65078873E+00  2.20000000E+00  2.20000000E+00  1.28024338E+00  1.28024338E+00
  3.22555518E-01  3.22555518E-01
Density Contraction coefficients           R   N=          72
  1.00000000E+00  1.00000000E+00  1.00000000E+00  1.00000000E+00  1.00000000E+00
  1.00000000E+00  1.00000000E+00  1.00000000E+00  1.00000000E+00  1.00000000E+00
  1.00000000E+00  1.00000000E+00  1.00000000E+00  1.00000000E+00  1.00000000E+00
  1.00000000E+00  1.00000000E+00  1.00000000E+00  1.00000000E+00  1.00000000E+00
  1.00000000E+00  1.00000000E+00  1.00000000E+00  1.00000000E+00  1.00000000E+00
  1.00000000E+00  1.00000000E+00  1.00000000E+00  1.00000000E+00  1.00000000E+00
  1.00000000E+00  1.00000000E+00  1.00000000E+00  1.00000000E+00  1.00000000E+00
  1.00000000E+00  1.00000000E+00  1.00000000E+00  1.00000000E+00  1.00000000E+00
  1.00000000E+00  1.00000000E+00  1.00000000E+00  1.00000000E+00  1.00000000E+00
  1.00000000E+00  1.00000000E+00  1.00000000E+00  1.00000000E+00  1.00000000E+00
  1.00000000E+00  1.00000000E+00  1.00000000E+00  1.00000000E+00  1.00000000E+00
  1.00000000E+00  1.00000000E+00  1.00000000E+00  1.00000000E+00  1.00000000E+00
  1.00000000E+00  1.00000000E+00  1.00000000E+00  1.00000000E+00  1.00000000E+00
  1.00000000E+00  1.00000000E+00  1.00000000E+00  1.00000000E+00  1.00000000E+00
  1.00000000E+00  1.00000000E+00
Density P(S=P) Contraction coefficients    R   N=          72
  0.00000000E+00  0.00000000E+00  0.00000000E+00  0.00000000E+00  1.00000000E+00
  0.00000000E+00  1.00000000E+00  0.00000000E+00  1.00000000E+00  0.00000000E+00
  1.00000000E+00  0.00000000E+00  0.00000000E+00  1.00000000E+00  0.00000000E+00
  0.00000000E+00  0.00000000E+00  0.00000000E+00  0.00000000E+00  0.00000000E+00
  1.00000000E+00  0.00000000E+00  1.00000000E+00  0.00000000E+00  1.00000000E+00
  0.00000000E+00  1.00000000E+00  0.00000000E+00  0.00000000E+00  1.00000000E+00
  0.00000000E+00  0.00000000E+00  0.00000000E+00  0.00000000E+00  0.00000000E+00
  0.00000000E+00  1.00000000E+00  0.00000000E+00  1.00000000E+00  0.00000000E+00
  1.00000000E+00  0.00000000E+00  1.00000000E+00  0.00000000E+00  0.00000000E+00
  1.00000000E+00  0.00000000E+00  0.00000000E+00  0.00000000E+00  0.00000000E+00
  1.00000000E+00  0.00000000E+00  1.00000000E+00  0.00000000E+00  1.00000000E+00
  0.00000000E+00  0.00000000E+00  0.00000000E+00  1.00000000E+00  0.00000000E+00
  1.00000000E+00  0.00000000E+00  1.00000000E+00  0.00000000E+00  0.00000000E+00
  0.00000000E+00  1.00000000E+00  0.00000000E+00  1.00000000E+00  0.00000000E+00
  1.00000000E+00  0.00000000E+00
Density Coordinates of each shell          R   N=         216
 -3.03100733E-01  7.37987188E-01  0.00000000E+00 -3.03100733E-01  7.37987188E-01
  0.00000000E+00 -3.03100733E-01  7.37987188E-01  0.00000000E+00 -3.03100733E-01
  7.37987188E-01  0.00000000E+00 -3.03100733E-01  7.37987188E-01  0.00000000E+00
 -3.03100733E-01  7.37987188E-01  0.00000000E+00 -3.03100733E-01  7.37987188E-01
  0.00000000E+00 -3.03100733E-01  7.37987188E-01  0.00000000E+00 -3.03100733E-01
  7.37987188E-01  0.00000000E+00 -3.03100733E-01  7.37987188E-01  0.00000000E+00
 -3.03100733E-01  7.37987188E-01  0.00000000E+00 -3.03100733E-01  7.37987188E-01
  0.00000000E+00 -3.03100733E-01  7.37987188E-01  0.00000000E+00 -3.03100733E-01
  7.37987188E-01  0.00000000E+00 -3.03100733E-01  7.37987188E-01  0.00000000E+00
 -3.03100733E-01  7.37987188E-01  0.00000000E+00  2.06130760E+00 -3.04548264E-01
 -9.82657589E-05  2.06130760E+00 -3.04548264E-01 -9.82657589E-05  2.06130760E+00
 -3.04548264E-01 -9.82657589E-05  2.06130760E+00 -3.04548264E-01 -9.82657589E-05
  2.06130760E+00 -3.04548264E-01 -9.82657589E-05  2.06130760E+00 -3.04548264E-01
 -9.82657589E-05  2.06130760E+00 -3.04548264E-01 -9.82657589E-05  2.06130760E+00
 -3.04548264E-01 -9.82657589E-05  2.06130760E+00 -3.04548264E-01 -9.82657589E-05
  2.06130760E+00 -3.04548264E-01 -9.82657589E-05  2.06130760E+00 -3.04548264E-01
 -9.82657589E-05  2.06130760E+00 -3.04548264E-01 -9.82657589E-05  2.06130760E+00
 -3.04548264E-01 -9.82657589E-05  2.06130760E+00 -3.04548264E-01 -9.82657589E-05
  2.06130760E+00 -3.04548264E-01 -9.82657589E-05  2.06130760E+00 -3.04548264E-01
 -9.82657589E-05 -2.28337498E+00 -4.64010914E-01 -1.32280829E-05 -2.28337498E+00
 -4.64010914E-01 -1.32280829E-05 -2.28337498E+00 -4.64010914E-01 -1.32280829E-05
 -2.28337498E+00 -4.64010914E-01 -1.32280829E-05 -2.28337498E+00 -4.64010914E-01
 -1.32280829E-05 -2.28337498E+00 -4.64010914E-01 -1.32280829E-05 -2.28337498E+00
 -4.64010914E-01 -1.32280829E-05 -2.28337498E+00 -4.64010914E-01 -1.32280829E-05
 -2.28337498E+00 -4.64010914E-01 -1.32280829E-05 -2.28337498E+00 -4.64010914E-01
 -1.32280829E-05 -2.28337498E+00 -4.64010914E-01 -1.32280829E-05 -2.28337498E+00
 -4.64010914E-01 -1.32280829E-05 -2.28337498E+00 -4.64010914E-01 -1.32280829E-05
 -2.28337498E+00 -4.64010914E-01 -1.32280829E-05 -2.28337498E+00 -4.64010914E-01
 -1.32280829E-05 -2.28337498E+00 -4.64010914E-01 -1.32280829E-05  2.23539106E+00
 -2.21808873E+00  2.75900015E-04  2.23539106E+00 -2.21808873E+00  2.75900015E-04
  2.23539106E+00 -2.21808873E+00  2.75900015E-04  2.23539106E+00 -2.21808873E+00
  2.75900015E-04  2.23539106E+00 -2.21808873E+00  2.75900015E-04  2.23539106E+00
 -2.21808873E+00  2.75900015E-04  2.23539106E+00 -2.21808873E+00  2.75900015E-04
  2.23539106E+00 -2.21808873E+00  2.75900015E-04  3.64170257E+00  7.82034814E-01
  5.02667151E-04  3.64170257E+00  7.82034814E-01  5.02667151E-04  3.64170257E+00
  7.82034814E-01  5.02667151E-04  3.64170257E+00  7.82034814E-01  5.02667151E-04
  3.64170257E+00  7.82034814E-01  5.02667151E-04  3.64170257E+00  7.82034814E-01
  5.02667151E-04  3.64170257E+00  7.82034814E-01  5.02667151E-04  3.64170257E+00
  7.82034814E-01  5.02667151E-04 -2.20634975E-01  2.85205594E+00  2.64561659E-05
 -2.20634975E-01  2.85205594E+00  2.64561659E-05 -2.20634975E-01  2.85205594E+00
  2.64561659E-05 -2.20634975E-01  2.85205594E+00  2.64561659E-05 -2.20634975E-01
  2.85205594E+00  2.64561659E-05 -2.20634975E-01  2.85205594E+00  2.64561659E-05
 -2.20634975E-01  2.85205594E+00  2.64561659E-05 -2.20634975E-01  2.85205594E+00
  2.64561659E-05
Constraint Structure                       R   N=          18
 -3.03100733E-01  7.37987188E-01  0.00000000E+00  2.06130760E+00 -3.04548264E-01
 -9.82657589E-05 -2.28337498E+00 -4.64010914E-01 -1.32280829E-05  2.23539106E+00
 -2.21808873E+00  2.75900015E-04  3.64170257E+00  7.82034814E-01  5.02667151E-04
 -2.20634975E-01  2.85205594E+00  2.64561659E-05
Num ILSW                                   I              100
ILSW                                       I   N=         100
           0           1           0           0           2           0
           0           0           0           0        1009          -1
           0           0           0           0           0           0
           0           0           1           0           1           0
           1           1           0           0           0           0
           0           0      100000           0          -1           0
           0           0           0           0           0           0
           0           0           0           1           0           0
           0           0           1           0           0           0
           0           0           4          40           0           0
           0           0           0           0           0           0
           0           0           0           0           0           0
           0           0           0           0           0           0
           0           0           0           0           0           0
           0           0           0           0           0           0
           0           0           0           0           0           0
           0           0           0           0
Num RLSW                                   I               40
RLSW                                       R   N=          40
  1.00000000E+00  1.00000000E+00  1.00000000E+00  1.00000000E+00  0.00000000E+00
  0.00000000E+00  0.00000000E+00  1.00000000E+00  0.00000000E+00  0.00000000E+00
  0.00000000E+00  0.00000000E+00  1.00000000E+00  0.00000000E+00  0.00000000E+00
  0.00000000E+00  0.00000000E+00  1.00000000E+00  0.00000000E+00  0.00000000E+00
  0.00000000E+00  0.00000000E+00  1.00000000E+00  0.00000000E+00  0.00000000E+00
  0.00000000E+00  0.00000000E+00  1.00000000E+00  0.00000000E+00  0.00000000E+00
  0.00000000E+00  0.00000000E+00  0.00000000E+00  0.00000000E+00  0.00000000E+00
  0.00000000E+00  0.00000000E+00  0.00000000E+00  1.00000000E+00  1.00000000E+00
MxBond                                     I                3
NBond                                      I   N=           6
           3           3           1           1           1           1
IBond                                      I   N=          18
           2           3           6           1           4           5
           1           0           0           2           0           0
           2           0           0           1           0           0
RBond                                      R   N=          18
  1.41000000E+00  2.00000000E+00  1.00000000E+00  1.41000000E+00  1.00000000E+00
  1.00000000E+00  2.00000000E+00  0.00000000E+00  0.00000000E+00  1.00000000E+00
  0.00000000E+00  0.00000000E+00  1.00000000E+00  0.00000000E+00  0.00000000E+00
  1.00000000E+00  0.00000000E+00  0.00000000E+00
Virial Ratio                               R      2.009230738684867E+00
SCF Energy                                 R     -1.697051234455281E+02
CIS Energy                                 R     -1.694540831473412E+02
Total Energy                               R     -1.694540831473412E+02
Post-SCF wavefunction norm                 R      1.000000000000000E+00
RMS Force                                  R      5.457675727217525E-02
RMS Density                                R      5.092930367200599E-09
External E-field                           R   N=          35
  0.00000000E+00  0.00000000E+00  0.00000000E+00  0.00000000E+00  0.00000000E+00
  0.00000000E+00  0.00000000E+00  0.00000000E+00  0.00000000E+00  0.00000000E+00
  0.00000000E+00  0.00000000E+00  0.00000000E+00  0.00000000E+00  0.00000000E+00
  0.00000000E+00  0.00000000E+00  0.00000000E+00  0.00000000E+00  0.00000000E+00
  0.00000000E+00  0.00000000E+00  0.00000000E+00  0.00000000E+00  0.00000000E+00
  0.00000000E+00  0.00000000E+00  0.00000000E+00  0.00000000E+00  0.00000000E+00
  0.00000000E+00  0.00000000E+00  0.00000000E+00  0.00000000E+00  0.00000000E+00
IOpCl                                      I                0
IROHF                                      I                0
Alpha Orbital Energies                     R   N=          60
 -1.87391277E+01 -1.40341481E+01 -9.99023945E+00 -9.33809770E-01 -8.23564051E-01
 -5.60611875E-01 -4.96999951E-01 -4.18583286E-01 -3.49613453E-01 -3.48420656E-01
 -2.28951752E-01 -2.01260486E-01 -6.12442607E-03  4.83748906E-02  8.34528616E-02
  1.35855218E-01  2.38814586E-01  2.97502293E-01  5.03923135E-01  5.10407862E-01
  6.05730836E-01  6.23130207E-01  6.34640971E-01  6.68633910E-01  7.82816052E-01
  7.83537711E-01  7.92936299E-01  8.24376803E-01  9.47831991E-01  1.02483863E+00
  1.16105132E+00  1.21922802E+00  1.26446054E+00  1.31506885E+00  1.43443843E+00
  1.45457160E+00  1.68461101E+00  1.74946929E+00  1.76215167E+00  1.89113514E+00
  1.92348194E+00  1.99458792E+00  2.03786040E+00  2.04317366E+00  2.18750782E+00
  2.27787840E+00  2.40701771E+00  2.43671739E+00  2.52221580E+00  2.64623274E+00
  2.66152891E+00  2.75771580E+00  2.89556011E+00  2.90806847E+00  3.14451092E+00
  3.35189758E+00  3.53010373E+00  3.77680860E+00  3.85520616E+00  4.29093990E+00
Alpha MO coefficients                      R   N=        3600
  2.47052284E-05  5.63089226E-04  2.53767978E-05 -4.49882957E-05 -3.01065918E-09
 -3.00086691E-03  2.29032251E-03  2.03263361E-03  1.94945299E-08 -6.27103241E-04
 -2.23024273E-04 -1.10601167E-05 -4.30882322E-04 -5.54722015E-09 -1.23934789E-09
 -6.59095711E-06  1.52637720E-05 -2.38306916E-05  5.21834632E-05 -3.98498782E-09
  1.58111246E-04 -2.84683644E-04 -7.98473604E-04  1.19904816E-08 -1.43058180E-04
  8.86221255E-05 -6.69560740E-06 -1.32302043E-04 -2.73724710E-08 -4.28009448E-08
  9.92493622E-01  2.67578045E-02  9.82960568E-04  5.61857020E-04  1.38642136E-09
  1.39744621E-02  1.33710592E-03  7.05060005E-04  1.58153329E-08 -8.22675848E-03
 -8.48469105E-03 -8.56324010E-03  2.53285730E-04  4.43927000E-09  9.23392811E-10
 -1.77951424E-04 -3.07846099E-04 -3.75123188E-05 -7.91377591E-05  3.68361471E-08
  2.03483612E-04  2.07814284E-05 -1.11500616E-05 -6.17709411E-05 -5.62075211E-08
 -3.20213594E-05 -6.21745134E-04 -8.82764597E-06  2.82167332E-05 -9.62511712E-10
  4.04903793E-05  1.84806594E-04  2.73695471E-04 -1.30617645E-04 -3.09519226E-08
 -5.11421882E-04 -1.49262761E-04  2.92331834E-05  8.28741082E-08  1.37767364E-04
  1.18459480E-04 -1.37413115E-05 -2.21553971E-05 -2.11384950E-08  6.98033365E-09
  9.92294940E-01  3.65195900E-02  1.47413016E-04 -2.47892589E-05  5.18862342E-07
  4.64385615E-03  4.58895137E-05 -3.58187340E-05 -1.04178451E-07 -9.01899659E-03
 -8.93192327E-03 -9.06062256E-03  6.38564486E-05  4.55156577E-08 -1.33799188E-09
 -9.70757958E-07  2.41934786E-05 -2.13505955E-05 -8.10133472E-06  1.55158607E-09
 -1.02526568E-05 -8.35503435E-05  2.55986887E-05 -1.93860404E-08 -1.04755763E-04
  2.14765620E-05  9.12191438E-06  4.39403950E-06 -1.06842526E-09 -7.72920131E-09
  2.51130763E-04 -6.16690864E-04  7.86728082E-06 -4.28943862E-05 -3.82336811E-09
  2.42996676E-04 -6.14181804E-04  5.31967989E-05  3.07404526E-05  4.59135549E-09
 -4.50138984E-05  2.39636884E-05 -5.14589390E-05  7.05349559E-05 -2.63359664E-09
  9.92339176E-01  5.17677910E-02 -1.12868526E-04 -6.03734131E-04 -8.68519426E-08
 -7.18580382E-03 -2.23392435E-03 -2.34464802E-03  3.97317387E-08 -9.34117113E-03
 -9.98913264E-03 -1.07379118E-02  3.37075306E-04 -2.13007089E-08  2.51490865E-08
 -1.59166102E-04 -1.69430129E-04  3.40605347E-04 -2.24709955E-04 -5.91954293E-08
  1.64911157E-03  4.25190539E-04  1.02951018E-03 -2.74733011E-08 -7.55453708E-04
 -4.82015143E-04 -3.41801612E-05  2.51153661E-04  2.57926102E-08  3.39706408E-08
 -7.16410315E-05  3.42670879E-04 -1.39611104E-04 -9.72369960E-05  4.60336659E-09
 -3.14717029E-03 -1.88837484E-03 -9.84728910E-04 -3.52196796E-08 -2.15184795E-04
  1.48149043E-04  4.08781949E-04 -3.34862855E-04 -2.94913961E-09 -4.60448482E-09
  2.76996695E-04  4.63845045E-04 -1.09609506E-04  2.29353899E-04 -6.46913950E-08
 -1.22451271E-04 -1.36105296E-04 -1.96072538E-04 -1.61226732E-05 -1.16235545E-08
 -4.31805993E-04  2.81117124E-03  7.98848592E-05  2.18883009E-04  1.41831659E-09
 -1.30308114E-01  2.55557297E-01 -1.06782809E-01 -1.06791017E-01 -2.04015031E-06
  7.01383030E-02  1.16867610E-02  3.08777113E-02  1.26291046E-06  1.26625529E-02
 -8.36914751E-03 -1.96386293E-02  1.62884652E-02  2.06100512E-07  2.58188045E-07
 -6.42569373E-02  1.30811925E-01 -4.48882161E-02  8.27362839E-03  1.22174752E-05
  1.24389978E-01 -2.71096388E-02 -4.32395665E-03  5.48065011E-06  8.21044667E-03
 -1.96326352E-03 -6.00231150E-03 -2.39577899E-03 -3.09108342E-07  7.63739277E-08
 -1.77677392E-01  3.84773703E-01  1.37978704E-01  7.69283257E-02  7.81714873E-07
  3.63484615E-01  5.32168278E-02  2.35803769E-02  3.16583604E-07  6.73508601E-03
 -5.28848602E-03 -6.05926137E-03  9.70971201E-03  2.15534607E-08  2.85953876E-08
  3.28985898E-02  1.15616416E-03 -1.39904728E-03  4.76878687E-03 -6.17753581E-07
  2.95635141E-02  2.77327791E-03 -2.98349351E-03 -1.84931949E-03 -9.75730275E-07
  3.27898281E-02 -1.20953020E-02 -1.71282808E-03 -6.45504585E-03 -9.98170846E-08
 -3.07390593E-02  6.18529416E-02  2.09450723E-01  3.86442843E-03  1.52899910E-07
  4.28316607E-03  9.42875218E-04  1.21473641E-02 -2.17120741E-07  6.63859502E-03
 -1.14759506E-03 -2.03965213E-03 -2.06620964E-02 -2.23711532E-07  1.33771269E-07
 -1.89484413E-01  3.93289203E-01 -1.21549384E-02  1.91208521E-02  4.68409116E-05
  4.02727520E-01 -8.83712580E-03  1.22253227E-02  2.27546121E-05 -1.56181749E-03
 -1.27404381E-03 -1.53746968E-02 -2.37954982E-03  2.07027364E-06  6.42777244E-07
  8.60952990E-02 -1.92885920E-01 -3.98236993E-02 -3.96129932E-02 -3.45006321E-07
 -1.71193230E-01 -3.85113275E-03 -1.19722899E-02 -1.30501361E-07  1.36970153E-03
 -8.67382240E-04  6.19392856E-04 -3.09266039E-03  4.62823133E-08 -1.34467644E-08
  1.17477507E-01  1.13463756E-02 -1.07147590E-03  1.51686624E-02 -2.10856650E-06
  1.26676361E-01  1.39969283E-02 -1.35893647E-02 -8.97563753E-03 -4.27797129E-06
  1.88993566E-02  2.92271106E-03  2.56377317E-03 -1.67779560E-03  2.72383591E-08
 -1.32589032E-01  2.84741181E-01  1.72939989E-01  1.18841113E-01 -1.46048723E-05
  2.18484638E-01  5.60009846E-02  5.59491342E-02  2.16433238E-06 -6.39528810E-03
 -4.70733421E-03 -9.37347674E-03 -6.67408665E-03 -2.23550005E-06  1.14906145E-06
  4.48972309E-02 -9.71058597E-02 -2.61755246E-01  2.30931783E-01 -5.04720662E-05
 -1.37562919E-01 -1.11191978E-01  9.57079526E-02 -2.61307423E-05  4.94053689E-03
 -1.70201906E-03  2.56974678E-03 -1.00620618E-02 -6.18771588E-06  4.70617790E-06
  6.08497722E-02 -1.42737394E-01  3.23795199E-02  3.49369623E-02 -3.93650716E-06
 -1.47234802E-01  2.87659067E-02  2.44429251E-02 -3.33278023E-06  4.47616815E-03
  2.03546609E-03 -2.55288282E-03  5.40835832E-03 -5.52181574E-07 -3.14471539E-07
 -1.70062510E-01 -6.91480129E-02 -4.35722161E-03 -1.18637807E-02  2.27166468E-06