 Entering Gaussian System, Link 0=g09
 Input=freq0.com
 Output=freq0.log
 Initial command:
 /home/diegoa/progs/g09/l1.exe /home/diegoa/g09scratch/Gau-30773.inp -scrdir=/home/diegoa/g09scratch/
 Default is to use a total of   4 processors:
                                4 via shared-memory
                                1 via Linda
 Entering Link 1 = /home/diegoa/progs/g09/l1.exe PID=     30778.
  
 Copyright (c) 1988,1990,1992,1993,1995,1998,2003,2009, Gaussian, Inc.
                  All Rights Reserved.
  
 This is part of the Gaussian(R) 09 program.  It is based on
 the Gaussian(R) 03 system (copyright 2003, Gaussian, Inc.),
 the Gaussian(R) 98 system (copyright 1998, Gaussian, Inc.),
 the Gaussian(R) 94 system (copyright 1995, Gaussian, Inc.),
 the Gaussian 92(TM) system (copyright 1992, Gaussian, Inc.),
 the Gaussian 90(TM) system (copyright 1990, Gaussian, Inc.),
 the Gaussian 88(TM) system (copyright 1988, Gaussian, Inc.),
 the Gaussian 86(TM) system (copyright 1986, Carnegie Mellon
 University), and the Gaussian 82(TM) system (copyright 1983,
 Carnegie Mellon University). Gaussian is a federally registered
 trademark of Gaussian, Inc.
  
 This software contains proprietary and confidential information,
 including trade secrets, belonging to Gaussian, Inc.
  
 This software is provided under written license and may be
 used, copied, transmitted, or stored only in accord with that
 written license.
  
 The following legend is applicable only to US Government
 contracts under FAR:
  
                    RESTRICTED RIGHTS LEGEND
  
 Use, reproduction and disclosure by the US Government is
 subject to restrictions as set forth in subparagraphs (a)
 and (c) of the Commercial Computer Software - Restricted
 Rights clause in FAR 52.227-19.
  
 Gaussian, Inc.
 340 Quinnipiac St., Bldg. 40, Wallingford CT 06492
  
  
 ---------------------------------------------------------------
 Warning -- This program may not be used in any manner that
 competes with the business of Gaussian, Inc. or will provide
 assistance to any competitor of Gaussian, Inc.  The licensee
 of this program is prohibited from giving any competitor of
 Gaussian, Inc. access to this program.  By using this program,
 the user acknowledges that Gaussian, Inc. is engaged in the
 business of creating and licensing software in the field of
 computational chemistry and represents and warrants to the
 licensee that it is not a competitor of Gaussian, Inc. and that
 it will not use this program in any manner prohibited above.
 ---------------------------------------------------------------
  

 Cite this work as:
 Gaussian 09, Revision A.01,
 M. J. Frisch, G. W. Trucks, H. B. Schlegel, G. E. Scuseria, 
 M. A. Robb, J. R. Cheeseman, G. Scalmani, V. Barone, B. Mennucci, 
 G. A. Petersson, H. Nakatsuji, M. Caricato, X. Li, H. P. Hratchian, 
 A. F. Izmaylov, J. Bloino, G. Zheng, J. L. Sonnenberg, M. Hada, 
 M. Ehara, K. Toyota, R. Fukuda, J. Hasegawa, M. Ishida, T. Nakajima, 
 Y. Honda, O. Kitao, H. Nakai, T. Vreven, J. A. Montgomery, Jr., 
 J. E. Peralta, F. Ogliaro, M. Bearpark, J. J. Heyd, E. Brothers, 
 K. N. Kudin, V. N. Staroverov, R. Kobayashi, J. Normand, 
 K. Raghavachari, A. Rendell, J. C. Burant, S. S. Iyengar, J. Tomasi, 
 M. Cossi, N. Rega, J. M. Millam, M. Klene, J. E. Knox, J. B. Cross, 
 V. Bakken, C. Adamo, J. Jaramillo, R. Gomperts, R. E. Stratmann, 
 O. Yazyev, A. J. Austin, R. Cammi, C. Pomelli, J. W. Ochterski, 
 R. L. Martin, K. Morokuma, V. G. Zakrzewski, G. A. Voth, 
 P. Salvador, J. J. Dannenberg, S. Dapprich, A. D. Daniels, 
 O. Farkas, J. B. Foresman, J. V. Ortiz, J. Cioslowski, 
 and D. J. Fox, Gaussian, Inc., Wallingford CT, 2009.
 
 ******************************************
 Gaussian 09:  EM64L-G09RevA.01  8-May-2009
                31-Oct-2019 
 ******************************************
 %chk=freq.chk
 %NProcShared=4
 Will use up to    4 processors via shared memory.
 Default route:  MP2=Direct MaxDisk=1000GB DenFit
 ----------------------------------
 # pbepbe/sto-3g opt(maxcycles=500)
 ----------------------------------
 1/6=500,14=-1,18=20,19=15,26=3,38=1/1,3;
 2/9=110,12=2,17=6,18=5,40=1/2;
 3/6=3,11=2,16=1,25=1,30=1,71=1,74=1009,82=47/1,2,3;
 4//1;
 5/5=2,38=5/2;
 6/7=2,8=2,9=2,10=2,28=1/1;
 7//1,2,3,16;
 1/6=500,14=-1,18=20,19=15/3(2);
 2/9=110/2;
 99//99;
 2/9=110/2;
 3/6=3,11=2,16=1,25=1,30=1,71=1,74=1009,82=47/1,2,3;
 4/5=5,16=3/1;
 5/5=2,38=5/2;
 7//1,2,3,16;
 1/6=500,14=-1,18=20,19=15/3(-5);
 2/9=110/2;
 6/7=2,8=2,9=2,10=2,19=2,28=1/1;
 99/9=1/99;
 -----
 Title
 -----
 Symbolic Z-matrix:
 Charge =  0 Multiplicity = 1
 O                     1.64779   3.87067  -0.21332 
 S                    -1.18925  -4.828     0.84195 
 O                    -2.68489  -3.2091   -0.38166 
 C                    -0.32787   0.24267  -0.2286 
 C                     1.0742    0.26076  -0.25213 
 C                    -1.0395    1.44139  -0.23327 
 C                     1.75793   1.47235  -0.2409 
 C                    -0.35669   2.64932  -0.22877 
 C                     1.03189   2.65692  -0.22657 
 C                    -1.10005  -0.9878   -0.24348 
 C                    -0.68106  -2.11819   0.32606 
 C                    -1.60165  -3.28308   0.19587 
 H                     1.65081  -0.66014  -0.28683 
 H                    -2.12697   1.44177  -0.23073 
 H                     2.84194   1.4645   -0.24823 
 H                    -0.91125   3.58045  -0.22514 
 H                    -2.07596  -0.96434  -0.71604 
 H                     0.27814  -2.11212   0.83448 
 H                     2.60808   3.73277  -0.21391 
 C                     0.38419  -4.40088   1.49321 
 H                     0.68088  -5.34951   1.90643 
 H                     0.21415  -3.62007   2.24633 
 H                     1.00209  -4.06799   0.64815 
 

 GradGradGradGradGradGradGradGradGradGradGradGradGradGradGradGradGradGrad
 Berny optimization.
 Initialization pass.
                           ----------------------------
                           !    Initial Parameters    !
                           ! (Angstroms and Degrees)  !
 --------------------------                            --------------------------
 ! Name  Definition              Value          Derivative Info.                !
 --------------------------------------------------------------------------------
 ! R1    R(1,9)                  1.3611         estimate D2E/DX2                !
 ! R2    R(1,19)                 0.9701         estimate D2E/DX2                !
 ! R3    R(2,12)                 1.7246         estimate D2E/DX2                !
 ! R4    R(2,20)                 1.7556         estimate D2E/DX2                !
 ! R5    R(3,12)                 1.2298         estimate D2E/DX2                !
 ! R6    R(4,5)                  1.4024         estimate D2E/DX2                !
 ! R7    R(4,6)                  1.394          estimate D2E/DX2                !
 ! R8    R(4,10)                 1.4528         estimate D2E/DX2                !
 ! R9    R(5,7)                  1.3912         estimate D2E/DX2                !
 ! R10   R(5,13)                 1.0871         estimate D2E/DX2                !
 ! R11   R(6,8)                  1.3876         estimate D2E/DX2                !
 ! R12   R(6,14)                 1.0875         estimate D2E/DX2                !
 ! R13   R(7,9)                  1.3894         estimate D2E/DX2                !
 ! R14   R(7,15)                 1.0841         estimate D2E/DX2                !
 ! R15   R(8,9)                  1.3886         estimate D2E/DX2                !
 ! R16   R(8,16)                 1.0838         estimate D2E/DX2                !
 ! R17   R(10,11)                1.3333         estimate D2E/DX2                !
 ! R18   R(10,17)                1.0846         estimate D2E/DX2                !
 ! R19   R(11,12)                1.4904         estimate D2E/DX2                !
 ! R20   R(11,18)                1.0856         estimate D2E/DX2                !
 ! R21   R(20,21)                1.0764         estimate D2E/DX2                !
 ! R22   R(20,22)                1.0981         estimate D2E/DX2                !
 ! R23   R(20,23)                1.0985         estimate D2E/DX2                !
 ! A1    A(9,1,19)             108.7316         estimate D2E/DX2                !
 ! A2    A(12,2,20)             97.7784         estimate D2E/DX2                !
 ! A3    A(5,4,6)              119.9481         estimate D2E/DX2                !
 ! A4    A(5,4,10)             122.8306         estimate D2E/DX2                !
 ! A5    A(6,4,10)             117.19           estimate D2E/DX2                !
 ! A6    A(4,5,7)              120.1616         estimate D2E/DX2                !
 ! A7    A(4,5,13)             121.3263         estimate D2E/DX2                !
 ! A8    A(7,5,13)             118.5106         estimate D2E/DX2                !
 ! A9    A(4,6,8)              119.8248         estimate D2E/DX2                !
 ! A10   A(4,6,14)             120.7151         estimate D2E/DX2                !
 ! A11   A(8,6,14)             119.4575         estimate D2E/DX2                !
 ! A12   A(5,7,9)              119.0609         estimate D2E/DX2                !
 ! A13   A(5,7,15)             119.0169         estimate D2E/DX2                !
 ! A14   A(9,7,15)             121.9216         estimate D2E/DX2                !
 ! A15   A(6,8,9)              119.792          estimate D2E/DX2                !
 ! A16   A(6,8,16)             119.745          estimate D2E/DX2                !
 ! A17   A(9,8,16)             120.4629         estimate D2E/DX2                !
 ! A18   A(1,9,7)              121.5936         estimate D2E/DX2                !
 ! A19   A(1,9,8)              117.218          estimate D2E/DX2                !
 ! A20   A(7,9,8)              121.1882         estimate D2E/DX2                !
 ! A21   A(4,10,11)            123.1391         estimate D2E/DX2                !
 ! A22   A(4,10,17)            117.6726         estimate D2E/DX2                !
 ! A23   A(11,10,17)           119.1586         estimate D2E/DX2                !
 ! A24   A(10,11,12)           115.5446         estimate D2E/DX2                !
 ! A25   A(10,11,18)           118.2266         estimate D2E/DX2                !
 ! A26   A(12,11,18)           126.2287         estimate D2E/DX2                !
 ! A27   A(2,12,3)             116.1322         estimate D2E/DX2                !
 ! A28   A(2,12,11)            121.3134         estimate D2E/DX2                !
 ! A29   A(3,12,11)            122.5514         estimate D2E/DX2                !
 ! A30   A(2,20,21)            100.08           estimate D2E/DX2                !
 ! A31   A(2,20,22)            106.776          estimate D2E/DX2                !
 ! A32   A(2,20,23)            107.0059         estimate D2E/DX2                !
 ! A33   A(21,20,22)           113.9569         estimate D2E/DX2                !
 ! A34   A(21,20,23)           114.0376         estimate D2E/DX2                !
 ! A35   A(22,20,23)           113.5302         estimate D2E/DX2                !
 ! D1    D(19,1,9,7)            -0.1248         estimate D2E/DX2                !
 ! D2    D(19,1,9,8)          -179.9589         estimate D2E/DX2                !
 ! D3    D(20,2,12,3)          178.9369         estimate D2E/DX2                !
 ! D4    D(20,2,12,11)          -0.4566         estimate D2E/DX2                !
 ! D5    D(12,2,20,21)        -179.7713         estimate D2E/DX2                !
 ! D6    D(12,2,20,22)          61.2597         estimate D2E/DX2                !
 ! D7    D(12,2,20,23)         -60.6272         estimate D2E/DX2                !
 ! D8    D(6,4,5,7)              1.8693         estimate D2E/DX2                !
 ! D9    D(6,4,5,13)          -177.6682         estimate D2E/DX2                !
 ! D10   D(10,4,5,7)           179.7748         estimate D2E/DX2                !
 ! D11   D(10,4,5,13)            0.2373         estimate D2E/DX2                !
 ! D12   D(5,4,6,8)             -1.5444         estimate D2E/DX2                !
 ! D13   D(5,4,6,14)           179.0495         estimate D2E/DX2                !
 ! D14   D(10,4,6,8)          -179.5658         estimate D2E/DX2                !
 ! D15   D(10,4,6,14)            1.0281         estimate D2E/DX2                !
 ! D16   D(5,4,10,11)           32.6444         estimate D2E/DX2                !
 ! D17   D(5,4,10,17)         -149.3565         estimate D2E/DX2                !
 ! D18   D(6,4,10,11)         -149.3959         estimate D2E/DX2                !
 ! D19   D(6,4,10,17)           28.6032         estimate D2E/DX2                !
 ! D20   D(4,5,7,9)             -0.9618         estimate D2E/DX2                !
 ! D21   D(4,5,7,15)           179.3188         estimate D2E/DX2                !
 ! D22   D(13,5,7,9)           178.5886         estimate D2E/DX2                !
 ! D23   D(13,5,7,15)           -1.1309         estimate D2E/DX2                !
 ! D24   D(4,6,8,9)              0.3296         estimate D2E/DX2                !
 ! D25   D(4,6,8,16)          -179.5574         estimate D2E/DX2                !
 ! D26   D(14,6,8,9)           179.7431         estimate D2E/DX2                !
 ! D27   D(14,6,8,16)           -0.1438         estimate D2E/DX2                !
 ! D28   D(5,7,9,1)            179.9094         estimate D2E/DX2                !
 ! D29   D(5,7,9,8)             -0.2631         estimate D2E/DX2                !
 ! D30   D(15,7,9,1)            -0.3797         estimate D2E/DX2                !
 ! D31   D(15,7,9,8)           179.4478         estimate D2E/DX2                !
 ! D32   D(6,8,9,1)           -179.5816         estimate D2E/DX2                !
 ! D33   D(6,8,9,7)              0.5836         estimate D2E/DX2                !
 ! D34   D(16,8,9,1)             0.3045         estimate D2E/DX2                !
 ! D35   D(16,8,9,7)          -179.5303         estimate D2E/DX2                !
 ! D36   D(4,10,11,12)        -179.3389         estimate D2E/DX2                !
 ! D37   D(4,10,11,18)           0.7456         estimate D2E/DX2                !
 ! D38   D(17,10,11,12)          2.6903         estimate D2E/DX2                !
 ! D39   D(17,10,11,18)       -177.2252         estimate D2E/DX2                !
 ! D40   D(10,11,12,2)         178.4299         estimate D2E/DX2                !
 ! D41   D(10,11,12,3)          -0.9241         estimate D2E/DX2                !
 ! D42   D(18,11,12,2)          -1.6624         estimate D2E/DX2                !
 ! D43   D(18,11,12,3)         178.9836         estimate D2E/DX2                !
 --------------------------------------------------------------------------------
 Trust Radius=3.00D-01 FncErr=1.00D-07 GrdErr=1.00D-06
 Number of steps in this run= 138 maximum allowed number of steps= 138.
 GradGradGradGradGradGradGradGradGradGradGradGradGradGradGradGradGradGrad

                          Input orientation:                          
 ---------------------------------------------------------------------
 Center     Atomic      Atomic             Coordinates (Angstroms)
 Number     Number       Type             X           Y           Z
 ---------------------------------------------------------------------
      1          8           0        1.647790    3.870670   -0.213320
      2         16           0       -1.189250   -4.828000    0.841950
      3          8           0       -2.684890   -3.209100   -0.381660
      4          6           0       -0.327870    0.242670   -0.228600
      5          6           0        1.074200    0.260760   -0.252130
      6          6           0       -1.039500    1.441390   -0.233270
      7          6           0        1.757930    1.472350   -0.240900
      8          6           0       -0.356690    2.649320   -0.228770
      9          6           0        1.031890    2.656920   -0.226570
     10          6           0       -1.100050   -0.987800   -0.243480
     11          6           0       -0.681060   -2.118190    0.326060
     12          6           0       -1.601650   -3.283080    0.195870
     13          1           0        1.650810   -0.660140   -0.286830
     14          1           0       -2.126970    1.441770   -0.230730
     15          1           0        2.841940    1.464500   -0.248230
     16          1           0       -0.911250    3.580450   -0.225140
     17          1           0       -2.075960   -0.964340   -0.716040
     18          1           0        0.278140   -2.112120    0.834480
     19          1           0        2.608080    3.732770   -0.213910
     20          6           0        0.384190   -4.400880    1.493210
     21          1           0        0.680880   -5.349510    1.906430
     22          1           0        0.214150   -3.620070    2.246330
     23          1           0        1.002090   -4.067990    0.648150
 ---------------------------------------------------------------------
                    Distance matrix (angstroms):
                    1          2          3          4          5
     1  O    0.000000
     2  S    9.210280   0.000000
     3  O    8.302024   2.520912   0.000000
     4  C    4.131083   5.253546   4.182545   0.000000
     5  C    3.655402   5.675887   5.117369   1.402384   0.000000
     6  C    3.622613   6.362686   4.935219   1.394048   2.421151
     7  C    2.401006   7.039378   6.455574   2.421327   1.391245
     8  C    2.347312   7.599336   6.305948   2.406823   2.784459
     9  C    1.361138   7.880306   6.946128   2.770840   2.396670
    10  C    5.581780   3.991648   2.732213   1.452770   2.507257
    11  C    6.448327   2.804901   2.388784   2.450725   3.012415
    12  C    7.867810   1.724607   1.229806   3.772745   4.463147
    13  H    4.531407   5.168282   5.030356   2.175691   1.087079
    14  H    4.488727   6.429617   4.686646   2.162084   3.412145
    15  H    2.686423   7.552122   7.239212   3.397197   2.138670
    16  H    2.575471   8.480448   7.019137   3.388380   3.868214
    17  H    6.123427   4.259279   2.349799   2.179516   3.411684
    18  H    6.226363   3.086955   3.385544   2.653756   2.728551
    19  H    0.970141   9.424507   8.731164   4.560791   3.795932
    20  C    8.539758   1.755644   3.788764   5.003420   5.025258
    21  H    9.509993   2.214154   4.598382   6.070289   6.024053
    22  H    8.013513   2.323986   3.934420   4.619505   4.694979
    23  H    8.011328   2.327476   3.923267   4.595571   4.421966
                    6          7          8          9         10
     6  C    0.000000
     7  C    2.797612   0.000000
     8  C    1.387568   2.420129   0.000000
     9  C    2.401711   1.389441   1.388603   0.000000
    10  C    2.429966   3.770994   3.712337   4.222492   0.000000
    11  C    3.621041   4.377453   4.810634   5.103065   1.333308
    12  C    4.777111   5.838806   6.076480   6.511343   2.390176
    13  H    3.414244   2.135673   3.871169   3.374845   2.770645
    14  H    1.087473   3.885034   2.142912   3.384524   2.637714
    15  H    3.881538   1.084063   3.411072   2.167629   4.642530
    16  H    2.142917   3.401302   1.083768   2.151442   4.572187
    17  H    2.663617   4.567486   4.031360   4.797065   1.084557
    18  H    3.937474   4.024257   4.919839   4.943451   2.079784
    19  H    4.307625   2.415157   3.156572   1.908399   6.002906
    20  C    6.256177   6.276076   7.295165   7.293127   4.107088
    21  H    7.324913   7.232485   8.343675   8.293119   5.178643
    22  H    5.773944   5.873867   6.764409   6.795921   3.854234
    23  H    5.941234   5.661896   6.909235   6.781625   3.834262
                   11         12         13         14         15
    11  C    0.000000
    12  C    1.490438   0.000000
    13  H    2.817652   4.206104   0.000000
    14  H    3.882523   4.773066   4.323516   0.000000
    15  H    5.057371   6.517840   2.436057   4.968993   0.000000
    16  H    5.729861   6.911002   4.954852   2.460073   4.308621
    17  H    2.088801   2.536357   3.763718   2.455095   5.504893
    18  H    1.085630   2.304904   2.291245   4.421466   4.531836
    19  H    6.733776   8.192185   4.496592   5.260196   2.280552
    20  C    2.776269   2.622237   4.331975   6.588964   6.593620
    21  H    3.846281   3.522228   5.267005   7.653297   7.466155
    22  H    2.597014   2.759543   4.152358   6.102368   6.243474
    23  H    2.595854   2.756828   3.592835   6.396945   5.898897
                   16         17         18         19         20
    16  H    0.000000
    17  H    4.717271   0.000000
    18  H    5.911243   3.043567   0.000000
    19  H    3.522643   6.652459   6.378909   0.000000
    20  C    8.266349   4.768955   2.384029   8.603267   0.000000
    21  H    9.317867   5.805793   3.433944   9.523537   1.076417
    22  H    7.695595   4.590549   2.066719   8.114674   1.098074
    23  H    7.932348   4.579088   2.093860   8.010881   1.098518
                   21         22         23
    21  H    0.000000
    22  H    1.823275   0.000000
    23  H    1.824483   1.837297   0.000000
 Stoichiometry    C10H10O2S
 Framework group  C1[X(C10H10O2S)]
 Deg. of freedom    63
 Full point group                 C1      NOp   1
 Largest Abelian subgroup         C1      NOp   1
 Largest concise Abelian subgroup C1      NOp   1
                         Standard orientation:                         
 ---------------------------------------------------------------------
 Center     Atomic      Atomic             Coordinates (Angstroms)
 Number     Number       Type             X           Y           Z
 ---------------------------------------------------------------------
      1          8           0        5.115797   -0.561592    0.153008
      2         16           0       -4.090084   -0.285209    0.085178
      3          8           0       -2.813867    1.841478   -0.365901
      4          6           0        1.112043    0.422334   -0.107168
      5          6           0        1.528012   -0.864630   -0.477808
      6          6           0        2.051109    1.363418    0.312220
      7          6           0        2.871047   -1.217207   -0.391137
      8          6           0        3.391283    1.012830    0.392006
      9          6           0        3.790117   -0.271727    0.046952
     10          6           0       -0.273422    0.853466   -0.178942
     11          6           0       -1.303851    0.031931    0.023560
     12          6           0       -2.653825    0.650012   -0.106634
     13          1           0        0.820026   -1.603951   -0.843732
     14          1           0        1.744223    2.369641    0.587777
     15          1           0        3.170482   -2.220557   -0.671886
     16          1           0        4.119270    1.743339    0.725089
     17          1           0       -0.464887    1.902609   -0.376178
     18          1           0       -1.093716   -1.005451    0.264958
     19          1           0        5.255832   -1.482852   -0.116888
     20          6           0       -3.325055   -1.835018    0.393569
     21          1           0       -4.196851   -2.454408    0.516050
     22          1           0       -2.729221   -1.717877    1.308462
     23          1           0       -2.723997   -2.078698   -0.493049
 ---------------------------------------------------------------------
 Rotational constants (GHZ):      2.1587774      0.2616288      0.2371525
 Standard basis: STO-3G (5D, 7F)
 There are    79 symmetry adapted basis functions of A   symmetry.
 Integral buffers will be    131072 words long.
 Raffenetti 2 integral format.
 Two-electron integral symmetry is turned on.
    79 basis functions,   237 primitive gaussians,    79 cartesian basis functions
    51 alpha electrons       51 beta electrons
       nuclear repulsion energy       799.2256080446 Hartrees.



 Warning!  S  atom    2 may be hypervalent but has no d functions.



 NAtoms=   23 NActive=   23 NUniq=   23 SFac= 7.50D-01 NAtFMM=   80 NAOKFM=F Big=F
 Standard density basis: Auto (5D, 7F)
   425 Density fitting functions
 There are   425 symmetry adapted density basis functions of A   symmetry.
 One-electron integrals computed using PRISM.
 NBasis=    79 RedAO= T  NBF=    79
 NBsUse=    79 1.00D-06 NBFU=    79
 NBasis=       79 NBas6D=       79 NTT=        3160   NTT6D=     3160
 NDBShl=       97 NDBF=        425 NDBF6D=      466  NNucDB=        0
 IDenFi=        2 ISolve=        0 FullAP=F BlkAPC=T NucTyp=        0
 TolInv= 1.00D-05 TolIt=  1.00D-10 IR12=0.
 Petite list used in FoFDir.
 MinBra= 0 MaxBra= 2 Meth= 1.
 IRaf=       0 NMat=   1 IRICut=       1 DoRegI=T DoRafI=F ISym2E= 1 JSym2E=1.
  NDBF=   425  NBFD=   425
 NRank=   425 NBFDU=   425
 S*AI*S=  7.39257883018    
 Harris functional with IExCor= 1009 diagonalized for initial guess.
 ExpMin= 1.69D-01 ExpMax= 5.33D+02 ExpMxC= 5.33D+02 IAcc=1 IRadAn=         1 AccDes= 0.00D+00
 HarFok:  IExCor= 1009 AccDes= 0.00D+00 IRadAn=         1 IDoV= 1
 ScaDFX=  1.000000  1.000000  1.000000  1.000000
 FoFCou: FMM=F IPFlag=           0 FMFlag=      100000 FMFlg1=           0
         NFxFlg=           0 DoJE=T BraDBF=F KetDBF=T FulRan=T
         Omega=  0.000000  0.000000  1.000000  0.000000  0.000000 ICntrl=     500 IOpCl=  0
         NMat0=    1 NMatS0=    1 NMatT0=    0 NMatD0=    1 NMtDS0=    0 NMtDT0=    0
         I1Cent=           4 NGrid=           0.
 Petite list used in FoFCou.
 Initial guess orbital symmetries:
       Occupied  (A) (A) (A) (A) (A) (A) (A) (A) (A) (A) (A) (A)
                 (A) (A) (A) (A) (A) (A) (A) (A) (A) (A) (A) (A)
                 (A) (A) (A) (A) (A) (A) (A) (A) (A) (A) (A) (A)
                 (A) (A) (A) (A) (A) (A) (A) (A) (A) (A) (A) (A)
                 (A) (A) (A)
       Virtual   (A) (A) (A) (A) (A) (A) (A) (A) (A) (A) (A) (A)
                 (A) (A) (A) (A) (A) (A) (A) (A) (A) (A) (A) (A)
                 (A) (A) (A) (A)
 The electronic state of the initial guess is 1-A.
 Requested convergence on RMS density matrix=1.00D-08 within 128 cycles.
 Requested convergence on MAX density matrix=1.00D-06.
 Requested convergence on             energy=1.00D-06.
 No special actions if energy rises.
 FoFCou: FMM=F IPFlag=           0 FMFlag=      100000 FMFlg1=           0
         NFxFlg=           0 DoJE=T BraDBF=T KetDBF=F FulRan=T
         Omega=  0.000000  0.000000  1.000000  0.000000  0.000000 ICntrl=     500 IOpCl=  0
         NMat0=    1 NMatS0=    1 NMatT0=    0 NMatD0=    1 NMtDS0=    0 NMtDT0=    0
         I1Cent=           5 NGrid=           0.
 Symmetry not used in FoFCou.
 Initial convergence to 1.0D-05 achieved.  Increase integral accuracy.
 SCF Done:  E(RPBE-PBE) =  -923.743031608     A.U. after   17 cycles
             Convg  =    0.8400D-08             -V/T =  2.0142

 **********************************************************************

            Population analysis using the SCF density.

 **********************************************************************

 Orbital symmetries:
       Occupied  (A) (A) (A) (A) (A) (A) (A) (A) (A) (A) (A) (A)
                 (A) (A) (A) (A) (A) (A) (A) (A) (A) (A) (A) (A)
                 (A) (A) (A) (A) (A) (A) (A) (A) (A) (A) (A) (A)
                 (A) (A) (A) (A) (A) (A) (A) (A) (A) (A) (A) (A)
                 (A) (A) (A)
       Virtual   (A) (A) (A) (A) (A) (A) (A) (A) (A) (A) (A) (A)
                 (A) (A) (A) (A) (A) (A) (A) (A) (A) (A) (A) (A)
                 (A) (A) (A) (A)
 The electronic state is 1-A.
 Alpha  occ. eigenvalues --  -86.92072 -18.57812 -18.46297  -9.77538  -9.74889
 Alpha  occ. eigenvalues --   -9.72326  -9.71458  -9.71332  -9.71013  -9.70867
 Alpha  occ. eigenvalues --   -9.70614  -9.70574  -9.69251  -7.35107  -5.37191
 Alpha  occ. eigenvalues --   -5.36321  -5.34905  -0.93911  -0.87167  -0.73745
 Alpha  occ. eigenvalues --   -0.69485  -0.67227  -0.63892  -0.61322  -0.55153
 Alpha  occ. eigenvalues --   -0.52380  -0.52005  -0.46943  -0.44776  -0.41892
 Alpha  occ. eigenvalues --   -0.39252  -0.36750  -0.36442  -0.35760  -0.34219
 Alpha  occ. eigenvalues --   -0.33512  -0.32589  -0.30467  -0.29529  -0.27434
 Alpha  occ. eigenvalues --   -0.26805  -0.26377  -0.23027  -0.22700  -0.21301
 Alpha  occ. eigenvalues --   -0.20439  -0.16817  -0.16380  -0.10585  -0.09070
 Alpha  occ. eigenvalues --   -0.06258
 Alpha virt. eigenvalues --    0.02159   0.05948   0.09434   0.16080   0.20708
 Alpha virt. eigenvalues --    0.22759   0.24574   0.27527   0.30098   0.34331
 Alpha virt. eigenvalues --    0.36065   0.36911   0.39364   0.40146   0.40293
 Alpha virt. eigenvalues --    0.41388   0.41900   0.42494   0.44765   0.51916
 Alpha virt. eigenvalues --    0.54049   0.55778   0.56263   0.60126   0.63157
 Alpha virt. eigenvalues --    0.68830   0.74547   0.77160
          Condensed to atoms (all electrons):
              1          2          3          4          5          6
     1  O    7.704005   0.000000   0.000000   0.000011   0.000387   0.000391
     2  S    0.000000  15.444966  -0.036479  -0.000005   0.000000   0.000000
     3  O    0.000000  -0.036479   7.839806   0.000006   0.000000   0.000000
     4  C    0.000011  -0.000005   0.000006   4.786622   0.495619   0.494625
     5  C    0.000387   0.000000   0.000000   0.495619   4.813406  -0.030940
     6  C    0.000391   0.000000   0.000000   0.494625  -0.030940   4.813623
     7  C   -0.022718   0.000000   0.000000  -0.030578   0.509111  -0.011140
     8  C   -0.028759   0.000000   0.000000  -0.031965  -0.011504   0.512718
     9  C    0.313729   0.000000   0.000000  -0.012827  -0.028658  -0.028722
    10  C    0.000000   0.000565  -0.005822   0.427554  -0.027290  -0.034744
    11  C    0.000000  -0.033351  -0.026032  -0.030431  -0.004896   0.000770
    12  C    0.000000   0.258549   0.424280   0.001131   0.000008  -0.000010
    13  H   -0.000006   0.000001   0.000000  -0.024218   0.390506   0.001454
    14  H   -0.000006   0.000000   0.000000  -0.024886   0.001441   0.392385
    15  H   -0.002051   0.000000   0.000000   0.001493  -0.024880   0.000056
    16  H   -0.000977   0.000000   0.000000   0.001556   0.000056  -0.024385
    17  H    0.000000   0.000093   0.003912  -0.025404   0.001102  -0.004103
    18  H    0.000000  -0.000437   0.000513  -0.004998  -0.000160   0.000037
    19  H    0.251313   0.000000   0.000000   0.000004   0.000035  -0.000072
    20  C    0.000000   0.240325   0.000269   0.000001   0.000000   0.000000
    21  H    0.000000  -0.027671  -0.000005   0.000000   0.000000   0.000000
    22  H    0.000000  -0.022831   0.000015   0.000002   0.000000   0.000000
    23  H    0.000000  -0.022647   0.000017   0.000003   0.000000   0.000000
              7          8          9         10         11         12
     1  O   -0.022718  -0.028759   0.313729   0.000000   0.000000   0.000000
     2  S    0.000000   0.000000   0.000000   0.000565  -0.033351   0.258549
     3  O    0.000000   0.000000   0.000000  -0.005822  -0.026032   0.424280
     4  C   -0.030578  -0.031965  -0.012827   0.427554  -0.030431   0.001131
     5  C    0.509111  -0.011504  -0.028658  -0.027290  -0.004896   0.000008
     6  C   -0.011140   0.512718  -0.028722  -0.034744   0.000770  -0.000010
     7  C    4.863736  -0.031066   0.487538   0.000959   0.000026   0.000000
     8  C   -0.031066   4.836291   0.490792   0.001147  -0.000011   0.000000
     9  C    0.487538   0.490792   4.787500   0.000041   0.000000   0.000000
    10  C    0.000959   0.001147   0.000041   4.823669   0.572698  -0.032741
    11  C    0.000026  -0.000011   0.000000   0.572698   4.922365   0.373330
    12  C    0.000000   0.000000   0.000000  -0.032741   0.373330   5.016429
    13  H   -0.026585   0.000032   0.001533  -0.003336  -0.000299  -0.000010
    14  H    0.000031  -0.026028   0.001522  -0.004630   0.000056  -0.000002
    15  H    0.390439   0.001321  -0.025845  -0.000018   0.000000   0.000000
    16  H    0.001421   0.390644  -0.025433  -0.000022   0.000000   0.000000
    17  H   -0.000020   0.000029  -0.000001   0.386574  -0.029442  -0.006387
    18  H   -0.000022  -0.000001  -0.000001  -0.028863   0.387804  -0.017979
    19  H   -0.007260   0.003510  -0.041417   0.000000   0.000000   0.000000
    20  C    0.000000   0.000000   0.000000   0.000117  -0.008293  -0.017622
    21  H    0.000000   0.000000   0.000000  -0.000002   0.000148   0.001165
    22  H    0.000000   0.000000   0.000000   0.000040  -0.001687  -0.003046
    23  H    0.000000   0.000000   0.000000   0.000042  -0.001484  -0.003106
             13         14         15         16         17         18
     1  O   -0.000006  -0.000006  -0.002051  -0.000977   0.000000   0.000000
     2  S    0.000001   0.000000   0.000000   0.000000   0.000093  -0.000437
     3  O    0.000000   0.000000   0.000000   0.000000   0.003912   0.000513
     4  C   -0.024218  -0.024886   0.001493   0.001556  -0.025404  -0.004998
     5  C    0.390506   0.001441  -0.024880   0.000056   0.001102  -0.000160
     6  C    0.001454   0.392385   0.000056  -0.024385  -0.004103   0.000037
     7  C   -0.026585   0.000031   0.390439   0.001421  -0.000020  -0.000022
     8  C    0.000032  -0.026028   0.001321   0.390644   0.000029  -0.000001
     9  C    0.001533   0.001522  -0.025845  -0.025433  -0.000001  -0.000001
    10  C   -0.003336  -0.004630  -0.000018  -0.000022   0.386574  -0.028863
    11  C   -0.000299   0.000056   0.000000   0.000000  -0.029442   0.387804
    12  C   -0.000010  -0.000002   0.000000   0.000000  -0.006387  -0.017979
    13  H    0.576116  -0.000036  -0.004355   0.000002   0.000023   0.000401
    14  H   -0.000036   0.570134   0.000002  -0.004184   0.000666   0.000002
    15  H   -0.004355   0.000002   0.580931  -0.000041   0.000000   0.000003
    16  H    0.000002  -0.004184  -0.000041   0.565048  -0.000001   0.000000
    17  H    0.000023   0.000666   0.000000  -0.000001   0.568674   0.002313
    18  H    0.000401   0.000002   0.000003   0.000000   0.002313   0.582694
    19  H   -0.000006   0.000001   0.002114   0.000036   0.000000   0.000000
    20  C   -0.000002   0.000000   0.000000   0.000000  -0.000005  -0.005534
    21  H    0.000000   0.000000   0.000000   0.000000   0.000000   0.000175
    22  H   -0.000002   0.000000   0.000000   0.000000  -0.000004  -0.001452
    23  H    0.000005   0.000000   0.000000   0.000000  -0.000003  -0.001497
             19         20         21         22         23
     1  O    0.251313   0.000000   0.000000   0.000000   0.000000
     2  S    0.000000   0.240325  -0.027671  -0.022831  -0.022647
     3  O    0.000000   0.000269  -0.000005   0.000015   0.000017
     4  C    0.000004   0.000001   0.000000   0.000002   0.000003
     5  C    0.000035   0.000000   0.000000   0.000000   0.000000
     6  C   -0.000072   0.000000   0.000000   0.000000   0.000000
     7  C   -0.007260   0.000000   0.000000   0.000000   0.000000
     8  C    0.003510   0.000000   0.000000   0.000000   0.000000
     9  C   -0.041417   0.000000   0.000000   0.000000   0.000000
    10  C    0.000000   0.000117  -0.000002   0.000040   0.000042
    11  C    0.000000  -0.008293   0.000148  -0.001687  -0.001484
    12  C    0.000000  -0.017622   0.001165  -0.003046  -0.003106
    13  H   -0.000006  -0.000002   0.000000  -0.000002   0.000005
    14  H    0.000001   0.000000   0.000000   0.000000   0.000000
    15  H    0.002114   0.000000   0.000000   0.000000   0.000000
    16  H    0.000036   0.000000   0.000000   0.000000   0.000000
    17  H    0.000000  -0.000005   0.000000  -0.000004  -0.000003
    18  H    0.000000  -0.005534   0.000175  -0.001452  -0.001497
    19  H    0.554859   0.000000   0.000000   0.000000   0.000000
    20  C    0.000000   4.979992   0.382337   0.381897   0.381773
    21  H    0.000000   0.382337   0.576849  -0.017357  -0.017346
    22  H    0.000000   0.381897  -0.017357   0.586215  -0.020307
    23  H    0.000000   0.381773  -0.017346  -0.020307   0.587363
 Mulliken atomic charges:
              1
     1  O   -0.215319
     2  S    0.198923
     3  O   -0.200480
     4  C   -0.023314
     5  C   -0.083343
     6  C   -0.081945
     7  C   -0.123874
     8  C   -0.107151
     9  C    0.080249
    10  C   -0.075939
    11  C   -0.121270
    12  C    0.006011
    13  H    0.088783
    14  H    0.093531
    15  H    0.080833
    16  H    0.096279
    17  H    0.101983
    18  H    0.087002
    19  H    0.236881
    20  C   -0.335253
    21  H    0.101707
    22  H    0.098520
    23  H    0.097186
 Sum of Mulliken atomic charges =   0.00000
 Mulliken charges with hydrogens summed into heavy atoms:
              1
     1  O    0.021561
     2  S    0.198923
     3  O   -0.200480
     4  C   -0.023314
     5  C    0.005440
     6  C    0.011586
     7  C   -0.043041
     8  C   -0.010872
     9  C    0.080249
    10  C    0.026044
    11  C   -0.034268
    12  C    0.006011
    20  C   -0.037841
 Sum of Mulliken charges with hydrogens summed into heavy atoms =   0.00000
 Electronic spatial extent (au):  <R**2>=           4236.5378
 Charge=              0.0000 electrons
 Dipole moment (field-independent basis, Debye):
    X=              2.3389    Y=             -3.6332    Z=              0.1555  Tot=              4.3238
 Quadrupole moment (field-independent basis, Debye-Ang):
   XX=            -71.8715   YY=            -71.0876   ZZ=            -76.4711
   XY=              0.4311   XZ=             -3.0724   YZ=              2.1551
 Traceless Quadrupole moment (field-independent basis, Debye-Ang):
   XX=              1.2719   YY=              2.0558   ZZ=             -3.3277
   XY=              0.4311   XZ=             -3.0724   YZ=              2.1551
 Octapole moment (field-independent basis, Debye-Ang**2):
  XXX=             43.9055  YYY=             -5.8351  ZZZ=             -0.2022  XYY=             23.8838
  XXY=            -62.1723  XXZ=             -3.7248  XZZ=             -5.9102  YZZ=              0.5970
  YYZ=              1.0092  XYZ=              4.7378
 Hexadecapole moment (field-independent basis, Debye-Ang**3):
 XXXX=          -4149.8020 YYYY=           -594.1687 ZZZZ=           -109.2891 XXXY=           -147.8925
 XXXZ=            -61.2889 YYYX=            -32.7791 YYYZ=              9.9058 ZZZX=              7.6774
 ZZZY=             -5.6709 XXYY=           -709.2576 XXZZ=           -735.7062 YYZZ=           -117.5744
 XXYZ=             21.9917 YYXZ=             -4.1106 ZZXY=            -11.7377
 N-N= 7.992256080446D+02 E-N=-3.768922547833D+03  KE= 9.107968121462D+02
 Calling FoFJK, ICntrl=      2527 FMM=F ISym2X=0 I1Cent= 4 IOpClX= 0 NMat=1 NMatS=1 NMatT=0.
 ***** Axes restored to original set *****
 -------------------------------------------------------------------
 Center     Atomic                   Forces (Hartrees/Bohr)
 Number     Number              X              Y              Z
 -------------------------------------------------------------------
      1        8          -0.052705381    0.068328220    0.000498305
      2       16          -0.016966599   -0.046697461    0.005357245
      3        8          -0.074397448    0.020382222   -0.043331630
      4        6           0.000216610   -0.004731719   -0.005442532
      5        6           0.013721570   -0.003695004    0.003593916
      6        6          -0.009017214    0.019250248   -0.001663147
      7        6          -0.002982395   -0.032928550   -0.000210228
      8        6          -0.027738313   -0.007319802    0.000370884
      9        6           0.024456482    0.012565152    0.000732471
     10        6           0.000626323    0.010966422   -0.003968104
     11        6           0.010107542   -0.007976140    0.005574081
     12        6           0.019043202    0.004147509    0.008720823
     13        1           0.005137855   -0.013945267   -0.000197722
     14        1          -0.014182822   -0.001419760   -0.000413240
     15        1           0.015333659    0.004139817   -0.000707600
     16        1          -0.004595975    0.014952594    0.000235499
     17        1          -0.018758889   -0.001787717   -0.006703609
     18        1           0.008441881   -0.004424604    0.004872701
     19        1           0.063725295   -0.020365230   -0.000254491
     20        6           0.001801989    0.000345569    0.001043997
     21        1           0.026751725   -0.010877853    0.016139938
     22        1           0.016175611    0.000692525    0.008191967
     23        1           0.015805292    0.000398829    0.007560477
 -------------------------------------------------------------------
 Cartesian Forces:  Max     0.074397448 RMS     0.020713058

 GradGradGradGradGradGradGradGradGradGradGradGradGradGradGradGradGradGrad
 Berny optimization.
 Internal  Forces:  Max     0.087104276 RMS     0.021950144
 Search for a local minimum.
 Step number   1 out of a maximum of  138
 All quantities printed in internal units (Hartrees-Bohrs-Radians)
 Mixed Optimization -- RFO/linear search
 Second derivative matrix not updated -- first step.
     Eigenvalues ---    0.00892   0.00957   0.01038   0.01368   0.01391
     Eigenvalues ---    0.01840   0.01898   0.02111   0.02138   0.02194
     Eigenvalues ---    0.02206   0.02206   0.02212   0.02216   0.02230
     Eigenvalues ---    0.02237   0.02247   0.02971   0.10716   0.11286
     Eigenvalues ---    0.15995   0.15999   0.15999   0.16000   0.16000
     Eigenvalues ---    0.16000   0.16000   0.16000   0.16000   0.16000
     Eigenvalues ---    0.21998   0.22000   0.22001   0.22982   0.23996
     Eigenvalues ---    0.24984   0.24999   0.25000   0.25000   0.25000
     Eigenvalues ---    0.29947   0.33084   0.33402   0.33846   0.33896
     Eigenvalues ---    0.35106   0.35152   0.35323   0.35449   0.35508
     Eigenvalues ---    0.35543   0.36431   0.37884   0.42270   0.42844
     Eigenvalues ---    0.46121   0.46990   0.47328   0.47608   0.52718
     Eigenvalues ---    0.53348   0.58731   0.911671000.000001000.00000
     Eigenvalues --- 1000.000001000.000001000.000001000.000001000.00000
     Eigenvalues --- 1000.000001000.000001000.000001000.000001000.00000
     Eigenvalues --- 1000.000001000.000001000.000001000.000001000.00000
     Eigenvalues --- 1000.000001000.000001000.000001000.000001000.00000
     Eigenvalues --- 1000.000001000.000001000.000001000.000001000.00000
     Eigenvalues --- 1000.000001000.000001000.000001000.000001000.00000
     Eigenvalues --- 1000.000001000.000001000.000001000.000001000.00000
     Eigenvalues --- 1000.00000
 RFO step:  Lambda=-1.02055448D-01 EMin= 8.92440294D-03
 Linear search not attempted -- first point.
 Maximum step size (   0.300) exceeded in Quadratic search.
    -- Step size scaled by   0.607
 Iteration  1 RMS(Cart)=  0.13694983 RMS(Int)=  0.00407868
 Iteration  2 RMS(Cart)=  0.01246953 RMS(Int)=  0.00049756
 Iteration  3 RMS(Cart)=  0.00007177 RMS(Int)=  0.00049667
 Iteration  4 RMS(Cart)=  0.00000004 RMS(Int)=  0.00049667
 Variable       Old X    -DE/DX   Delta X   Delta X   Delta X     New X
                                 (Linear)    (Quad)   (Total)
    R1        2.57218   0.04776   0.00000   0.04605   0.04605   2.61823
    R2        1.83330   0.06597   0.00000   0.06299   0.06299   1.89629
    R3        3.25904   0.07506   0.00000   0.10521   0.10521   3.36424
    R4        3.31769   0.06418   0.00000   0.09700   0.09700   3.41468
    R5        2.32400   0.08710   0.00000   0.05214   0.05214   2.37614
    R6        2.65012   0.02432   0.00000   0.02601   0.02596   2.67608
    R7        2.63437   0.03891   0.00000   0.04122   0.04118   2.67555
    R8        2.74534   0.03550   0.00000   0.04480   0.04480   2.79013
    R9        2.62907   0.01994   0.00000   0.02085   0.02084   2.64992
   R10        2.05428   0.01454   0.00000   0.01946   0.01946   2.07374
   R11        2.62212   0.02196   0.00000   0.02326   0.02326   2.64539
   R12        2.05503   0.01418   0.00000   0.01899   0.01899   2.07402
   R13        2.62566   0.04501   0.00000   0.04773   0.04778   2.67344
   R14        2.04858   0.01531   0.00000   0.02032   0.02032   2.06890
   R15        2.62408   0.04239   0.00000   0.04512   0.04516   2.66924
   R16        2.04802   0.01520   0.00000   0.02016   0.02016   2.06819
   R17        2.51959   0.04548   0.00000   0.04003   0.04003   2.55962
   R18        2.04952   0.01976   0.00000   0.02627   0.02627   2.07578
   R19        2.81652   0.03165   0.00000   0.04405   0.04405   2.86057
   R20        2.05154   0.00972   0.00000   0.01295   0.01295   2.06449
   R21        2.03413   0.02316   0.00000   0.03013   0.03013   2.06426
   R22        2.07506   0.00360   0.00000   0.00496   0.00496   2.08002
   R23        2.07590   0.00320   0.00000   0.00441   0.00441   2.08030
    A1        1.89772  -0.02035   0.00000  -0.04713  -0.04713   1.85059
    A2        1.70655   0.07928   0.00000   0.13664   0.13664   1.84320
    A3        2.09349  -0.00400   0.00000  -0.00891  -0.00901   2.08448
    A4        2.14380  -0.00419   0.00000  -0.00618  -0.00614   2.13766
    A5        2.04535   0.00822   0.00000   0.01522   0.01526   2.06061
    A6        2.09721   0.00143   0.00000   0.00056   0.00051   2.09773
    A7        2.11754  -0.00385   0.00000  -0.00754  -0.00751   2.11003
    A8        2.06840   0.00242   0.00000   0.00697   0.00700   2.07540
    A9        2.09134   0.00440   0.00000   0.00762   0.00758   2.09891
   A10        2.10688  -0.00367   0.00000  -0.00720  -0.00718   2.09970
   A11        2.08493  -0.00074   0.00000  -0.00042  -0.00040   2.08453
   A12        2.07800   0.01089   0.00000   0.02005   0.02010   2.09810
   A13        2.07724  -0.00110   0.00000   0.00004   0.00002   2.07725
   A14        2.12793  -0.00979   0.00000  -0.02009  -0.02011   2.10782
   A15        2.09077   0.00432   0.00000   0.00912   0.00917   2.09994
   A16        2.08994   0.00163   0.00000   0.00422   0.00419   2.09414
   A17        2.10247  -0.00595   0.00000  -0.01334  -0.01336   2.08911
   A18        2.12221   0.01362   0.00000   0.02298   0.02293   2.14514
   A19        2.04584   0.00342   0.00000   0.00541   0.00536   2.05120
   A20        2.11513  -0.01704   0.00000  -0.02839  -0.02829   2.08684
   A21        2.14918   0.01090   0.00000   0.02055   0.02055   2.16974
   A22        2.05377  -0.00273   0.00000  -0.00397  -0.00397   2.04981
   A23        2.07971  -0.00816   0.00000  -0.01653  -0.01653   2.06318
   A24        2.01663   0.00767   0.00000   0.01445   0.01445   2.03109
   A25        2.06344   0.00069   0.00000   0.00326   0.00326   2.06670
   A26        2.20311  -0.00836   0.00000  -0.01771  -0.01771   2.18539
   A27        2.02689   0.01787   0.00000   0.03082   0.03081   2.05770
   A28        2.11732   0.00027   0.00000   0.00048   0.00048   2.11780
   A29        2.13893  -0.01814   0.00000  -0.03126  -0.03126   2.10767
   A30        1.74673   0.03105   0.00000   0.07122   0.06917   1.81589
   A31        1.86359   0.02149   0.00000   0.05017   0.04828   1.91187
   A32        1.86760   0.02037   0.00000   0.04754   0.04567   1.91328
   A33        1.98892  -0.02118   0.00000  -0.04985  -0.05209   1.93684
   A34        1.99033  -0.02114   0.00000  -0.04983  -0.05199   1.93834
   A35        1.98148  -0.01628   0.00000  -0.03624  -0.03811   1.94336
    D1       -0.00218  -0.00001   0.00000   0.00002   0.00001  -0.00217
    D2       -3.14087   0.00019   0.00000   0.00087   0.00088  -3.14000
    D3        3.12304   0.00047   0.00000   0.00279   0.00284   3.12588
    D4       -0.00797  -0.00014   0.00000  -0.00106  -0.00111  -0.00908
    D5       -3.13760   0.00018   0.00000   0.00083   0.00090  -3.13670
    D6        1.06918   0.00194   0.00000   0.00595   0.00553   1.07472
    D7       -1.05814  -0.00174   0.00000  -0.00472  -0.00437  -1.06251
    D8        0.03263  -0.00062   0.00000  -0.00295  -0.00294   0.02969
    D9       -3.10089  -0.00039   0.00000  -0.00172  -0.00171  -3.10260
   D10        3.13766   0.00037   0.00000   0.00153   0.00151   3.13918
   D11        0.00414   0.00060   0.00000   0.00276   0.00274   0.00689
   D12       -0.02695   0.00010   0.00000   0.00067   0.00067  -0.02628
   D13        3.12500   0.00010   0.00000   0.00069   0.00070   3.12570
   D14       -3.13402  -0.00060   0.00000  -0.00316  -0.00317  -3.13718
   D15        0.01794  -0.00060   0.00000  -0.00313  -0.00314   0.01480
   D16        0.56975  -0.00302   0.00000  -0.01581  -0.01582   0.55393
   D17       -2.60676  -0.00269   0.00000  -0.01415  -0.01415  -2.62092
   D18       -2.60745  -0.00229   0.00000  -0.01190  -0.01190  -2.61935
   D19        0.49922  -0.00196   0.00000  -0.01024  -0.01023   0.48899
   D20       -0.01679   0.00057   0.00000   0.00281   0.00281  -0.01397
   D21        3.12970   0.00060   0.00000   0.00298   0.00299   3.13269
   D22        3.11696   0.00032   0.00000   0.00155   0.00154   3.11850
   D23       -0.01974   0.00035   0.00000   0.00172   0.00172  -0.01802
   D24        0.00575   0.00028   0.00000   0.00137   0.00138   0.00713
   D25       -3.13387   0.00004   0.00000   0.00021   0.00021  -3.13366
   D26        3.13711   0.00027   0.00000   0.00131   0.00131   3.13842
   D27       -0.00251   0.00002   0.00000   0.00014   0.00014  -0.00237
   D28        3.14001   0.00000   0.00000   0.00006   0.00006   3.14008
   D29       -0.00459  -0.00017   0.00000  -0.00076  -0.00076  -0.00535
   D30       -0.00663  -0.00001   0.00000  -0.00005  -0.00005  -0.00668
   D31        3.13196  -0.00018   0.00000  -0.00088  -0.00088   3.13108
   D32       -3.13429  -0.00045   0.00000  -0.00215  -0.00214  -3.13643
   D33        0.01019  -0.00031   0.00000  -0.00140  -0.00140   0.00879
   D34        0.00531  -0.00020   0.00000  -0.00096  -0.00096   0.00436
   D35       -3.13340  -0.00005   0.00000  -0.00021  -0.00021  -3.13361
   D36       -3.13006  -0.00066   0.00000  -0.00311  -0.00312  -3.13317
   D37        0.01301  -0.00056   0.00000  -0.00259  -0.00259   0.01042
   D38        0.04695  -0.00110   0.00000  -0.00505  -0.00505   0.04191
   D39       -3.09316  -0.00100   0.00000  -0.00452  -0.00452  -3.09768
   D40        3.11419   0.00053   0.00000   0.00273   0.00271   3.11690
   D41       -0.01613  -0.00035   0.00000  -0.00177  -0.00175  -0.01788
   D42       -0.02901   0.00043   0.00000   0.00218   0.00216  -0.02685
   D43        3.12385  -0.00046   0.00000  -0.00232  -0.00230   3.12156
         Item               Value     Threshold  Converged?
 Maximum Force            0.087104     0.000450     NO 
 RMS     Force            0.021950     0.000300     NO 
 Maximum Displacement     0.598645     0.001800     NO 
 RMS     Displacement     0.147281     0.001200     NO 
 Predicted change in Energy=-4.771558D-02
 GradGradGradGradGradGradGradGradGradGradGradGradGradGradGradGradGradGrad

                          Input orientation:                          
 ---------------------------------------------------------------------
 Center     Atomic      Atomic             Coordinates (Angstroms)
 Number     Number       Type             X           Y           Z
 ---------------------------------------------------------------------
      1          8           0        1.666805    4.010254   -0.244095
      2         16           0       -1.221241   -4.878703    0.842043
      3          8           0       -2.753125   -3.168552   -0.412530
      4          6           0       -0.348078    0.312822   -0.253035
      5          6           0        1.067871    0.331117   -0.265585
      6          6           0       -1.059847    1.536640   -0.268884
      7          6           0        1.757431    1.552108   -0.257491
      8          6           0       -0.369356    2.754369   -0.264944
      9          6           0        1.042978    2.773168   -0.253825
     10          6           0       -1.124898   -0.942732   -0.263757
     11          6           0       -0.712283   -2.100854    0.304707
     12          6           0       -1.648304   -3.283608    0.176692
     13          1           0        1.643265   -0.602978   -0.290480
     14          1           0       -2.157354    1.538949   -0.274510
     15          1           0        2.852213    1.543758   -0.258935
     16          1           0       -0.924141    3.697758   -0.269725
     17          1           0       -2.114753   -0.921603   -0.739516
     18          1           0        0.253518   -2.114179    0.815169
     19          1           0        2.652716    3.823414   -0.238655
     20          6           0        0.416348   -4.675703    1.578412
     21          1           0        0.654416   -5.666299    1.972489
     22          1           0        0.366427   -3.931319    2.387694
     23          1           0        1.136343   -4.375478    0.801661
 ---------------------------------------------------------------------
                    Distance matrix (angstroms):
                    1          2          3          4          5
     1  O    0.000000
     2  S    9.409254   0.000000
     3  O    8.432047   2.616340   0.000000
     4  C    4.210800   5.377131   4.234342   0.000000
     5  C    3.727631   5.797335   5.183559   1.416123   0.000000
     6  C    3.681577   6.512821   5.002666   1.415838   2.445502
     7  C    2.459853   7.171944   6.530986   2.443157   1.402276
     8  C    2.392411   7.759827   6.386324   2.441669   2.817405
     9  C    1.385509   8.054734   7.052633   2.826365   2.442206
    10  C    5.685602   4.089491   2.761798   1.476476   2.535928
    11  C    6.580797   2.874753   2.412352   2.503908   3.067355
    12  C    8.022932   1.780281   1.257397   3.848320   4.543067
    13  H    4.613525   5.269708   5.091691   2.192154   1.097375
    14  H    4.553292   6.580976   4.747058   2.185709   3.443981
    15  H    2.736607   7.684606   7.324566   3.428863   2.157410
    16  H    2.609848   8.653321   7.107165   3.433645   3.911827
    17  H    6.234488   4.354117   2.358648   2.209436   3.452972
    18  H    6.374018   3.133405   3.414505   2.719064   2.794758
    19  H    1.003474   9.586568   8.839737   4.618358   3.835179
    20  C    8.962758   1.806971   4.034961   5.368792   5.375226
    21  H    9.978670   2.327296   4.851638   6.458161   6.414743
    22  H    8.466752   2.409826   4.260829   5.049426   5.069544
    23  H    8.467319   2.411030   4.249575   5.029517   4.826566
                    6          7          8          9         10
     6  C    0.000000
     7  C    2.817343   0.000000
     8  C    1.399877   2.443094   0.000000
     9  C    2.439488   1.414724   1.412503   0.000000
    10  C    2.480231   3.812098   3.773513   4.302058   0.000000
    11  C    3.698808   4.445187   4.900541   5.210470   1.354493
    12  C    4.876435   5.930573   6.187723   6.641753   2.438781
    13  H    3.447499   2.158360   3.914470   3.429293   2.789064
    14  H    1.097524   3.914844   2.162007   3.430139   2.687902
    15  H    3.912079   1.094815   3.441529   2.187420   4.690423
    16  H    2.165374   3.434354   1.094437   2.173632   4.644834
    17  H    2.716115   4.620109   4.096877   4.884516   1.098456
    18  H    4.028471   4.105364   5.025672   5.064796   2.106276
    19  H    4.360433   2.441459   3.205693   1.922109   6.081706
    20  C    6.647170   6.629832   7.695535   7.696456   4.438930
    21  H    7.735942   7.635107   8.772791   8.736822   5.520765
    22  H    6.244217   6.244988   7.230235   7.237782   4.264493
    23  H    6.397066   6.053414   7.364746   7.226749   4.246419
                   11         12         13         14         15
    11  C    0.000000
    12  C    1.513747   0.000000
    13  H    2.854206   4.270651   0.000000
    14  H    3.958774   4.870294   4.362661   0.000000
    15  H    5.128989   6.614219   2.463945   5.009594   0.000000
    16  H    5.830846   7.033006   5.008825   2.486221   4.347491
    17  H    2.109019   2.576059   3.798139   2.504468   5.565943
    18  H    1.092483   2.322099   2.331864   4.510548   4.613829
    19  H    6.834868   8.317515   4.540333   5.325114   2.288459
    20  C    3.086418   2.857540   4.645985   6.977045   6.927552
    21  H    4.166744   3.768903   5.633478   8.054232   7.860947
    22  H    2.975407   3.060588   4.458788   6.586397   6.569646
    23  H    2.972927   3.055655   3.959987   6.854708   6.253513
                   16         17         18         19         20
    16  H    0.000000
    17  H    4.793408   0.000000
    18  H    6.028473   3.073758   0.000000
    19  H    3.579198   6.744984   6.490124   0.000000
    20  C    8.679134   5.086505   2.677771   8.974301   0.000000
    21  H    9.757301   6.126615   3.757348   9.946709   1.092362
    22  H    8.181091   4.999409   2.405739   8.500631   1.100698
    23  H    8.400631   4.987395   2.427557   8.402587   1.100850
                   21         22         23
    21  H    0.000000
    22  H    1.807066   0.000000
    23  H    1.808124   1.818117   0.000000
 Stoichiometry    C10H10O2S
 Framework group  C1[X(C10H10O2S)]
 Deg. of freedom    63
 Full point group                 C1      NOp   1
 Largest Abelian subgroup         C1      NOp   1
 Largest concise Abelian subgroup C1      NOp   1
                         Standard orientation:                         
 ---------------------------------------------------------------------
 Center     Atomic      Atomic             Coordinates (Angstroms)
 Number     Number       Type             X           Y           Z
 ---------------------------------------------------------------------
      1          8           0       -5.233991    0.616825    0.153102
      2         16           0        4.167546    0.243979    0.074727
      3          8           0        2.786237   -1.936659   -0.351935
      4          6           0       -1.163962   -0.432324   -0.101825
      5          6           0       -1.569121    0.871198   -0.478760
      6          6           0       -2.137785   -1.367690    0.324035
      7          6           0       -2.919052    1.241629   -0.396033
      8          6           0       -3.485426   -0.996940    0.401924
      9          6           0       -3.886871    0.310343    0.048348
     10          6           0        0.242325   -0.876713   -0.171506
     11          6           0        1.310000   -0.064395    0.015204
     12          6           0        2.674454   -0.708152   -0.108373
     13          1           0       -0.839609    1.603598   -0.847046
     14          1           0       -1.841532   -2.386394    0.605167
     15          1           0       -3.209765    2.256993   -0.684379
     16          1           0       -4.233430   -1.721366    0.738805
     17          1           0        0.427606   -1.943306   -0.357665
     18          1           0        1.128544    0.988777    0.241971
     19          1           0       -5.324073    1.573026   -0.137632
     20          6           0        3.627492    1.940298    0.384548
     21          1           0        4.559552    2.500617    0.487306
     22          1           0        3.041697    1.975921    1.315737
     23          1           0        3.039987    2.303617   -0.472603
 ---------------------------------------------------------------------
 Rotational constants (GHZ):      2.0215887      0.2486731      0.2248407
 Standard basis: STO-3G (5D, 7F)
 There are    79 symmetry adapted basis functions of A   symmetry.
 Integral buffers will be    131072 words long.
 Raffenetti 2 integral format.
 Two-electron integral symmetry is turned on.
    79 basis functions,   237 primitive gaussians,    79 cartesian basis functions
    51 alpha electrons       51 beta electrons
       nuclear repulsion energy       780.4279889032 Hartrees.
 NAtoms=   23 NActive=   23 NUniq=   23 SFac= 7.50D-01 NAtFMM=   80 NAOKFM=F Big=F
 Standard density basis: Auto (5D, 7F)
   425 Density fitting functions
 There are   425 symmetry adapted density basis functions of A   symmetry.
 One-electron integrals computed using PRISM.
 NBasis=    79 RedAO= T  NBF=    79
 NBsUse=    79 1.00D-06 NBFU=    79
 NBasis=       79 NBas6D=       79 NTT=        3160   NTT6D=     3160
 NDBShl=       97 NDBF=        425 NDBF6D=      466  NNucDB=        0
 IDenFi=        2 ISolve=        0 FullAP=F BlkAPC=T NucTyp=        0
 TolInv= 1.00D-05 TolIt=  1.00D-10 IR12=0.
 Petite list used in FoFDir.
 MinBra= 0 MaxBra= 2 Meth= 1.
 IRaf=       0 NMat=   1 IRICut=       1 DoRegI=T DoRafI=F ISym2E= 1 JSym2E=1.
  NDBF=   425  NBFD=   425
 NRank=   425 NBFDU=   425
 S*AI*S=  7.51220350366    
 Initial guess read from the read-write file.
 B after Tr=     0.000000    0.000000    0.000000
         Rot=    1.000000    0.000000    0.000000    0.000000 Ang=   0.00 deg.
 Initial guess orbital symmetries:
       Occupied  (A) (A) (A) (A) (A) (A) (A) (A) (A) (A) (A) (A)
                 (A) (A) (A) (A) (A) (A) (A) (A) (A) (A) (A) (A)
                 (A) (A) (A) (A) (A) (A) (A) (A) (A) (A) (A) (A)
                 (A) (A) (A) (A) (A) (A) (A) (A) (A) (A) (A) (A)
                 (A) (A) (A)
       Virtual   (A) (A) (A) (A) (A) (A) (A) (A) (A) (A) (A) (A)
                 (A) (A) (A) (A) (A) (A) (A) (A) (A) (A) (A) (A)
                 (A) (A) (A) (A)
 Harris functional with IExCor= 1009 diagonalized for initial guess.
 ExpMin= 1.69D-01 ExpMax= 5.33D+02 ExpMxC= 5.33D+02 IAcc=1 IRadAn=         1 AccDes= 0.00D+00
 HarFok:  IExCor= 1009 AccDes= 0.00D+00 IRadAn=         1 IDoV= 1
 ScaDFX=  1.000000  1.000000  1.000000  1.000000
 FoFCou: FMM=F IPFlag=           0 FMFlag=      100000 FMFlg1=           0
         NFxFlg=           0 DoJE=T BraDBF=F KetDBF=T FulRan=T
         Omega=  0.000000  0.000000  1.000000  0.000000  0.000000 ICntrl=     500 IOpCl=  0
         NMat0=    1 NMatS0=    1 NMatT0=    0 NMatD0=    1 NMtDS0=    0 NMtDT0=    0
         I1Cent=           4 NGrid=           0.
 Petite list used in FoFCou.
 Requested convergence on RMS density matrix=1.00D-08 within 128 cycles.
 Requested convergence on MAX density matrix=1.00D-06.
 Requested convergence on             energy=1.00D-06.
 No special actions if energy rises.
 FoFCou: FMM=F IPFlag=           0 FMFlag=      100000 FMFlg1=           0
         NFxFlg=           0 DoJE=T BraDBF=T KetDBF=F FulRan=T
         Omega=  0.000000  0.000000  1.000000  0.000000  0.000000 ICntrl=     500 IOpCl=  0
         NMat0=    1 NMatS0=    1 NMatT0=    0 NMatD0=    1 NMtDS0=    0 NMtDT0=    0
         I1Cent=           5 NGrid=           0.
 Symmetry not used in FoFCou.
 Rare condition: small coef for last iteration:  0.000D+00
 EnCoef did   100 forward-backward iterations
 Rare condition: small coef for last iteration:  0.000D+00
 EnCoef did   100 forward-backward iterations
 EnCoef did   100 forward-backward iterations
 Rare condition: small coef for last iteration:  0.132D-15
 Initial convergence to 1.0D-05 achieved.  Increase integral accuracy.
 SCF Done:  E(RPBE-PBE) =  -923.781720082     A.U. after   19 cycles
             Convg  =    0.4608D-08             -V/T =  2.0149
 Calling FoFJK, ICntrl=      2527 FMM=F ISym2X=0 I1Cent= 4 IOpClX= 0 NMat=1 NMatS=1 NMatT=0.
 ***** Axes restored to original set *****
 -------------------------------------------------------------------
 Center     Atomic                   Forces (Hartrees/Bohr)
 Number     Number              X              Y              Z
 -------------------------------------------------------------------
      1        8          -0.022982815    0.036436486   -0.000134134
      2       16          -0.005493814   -0.021109069    0.003654394
      3        8          -0.026027578    0.004386346   -0.013949590
      4        6          -0.001682763   -0.004087309   -0.003637898
      5        6           0.006153523    0.002751210    0.003441142
      6        6          -0.000483044    0.009768298   -0.001494872
      7        6          -0.004762569   -0.015637815   -0.000122259
      8        6          -0.012445068   -0.006942039    0.000157561
      9        6           0.011501144   -0.001012481    0.000553697
     10        6           0.002648865    0.004462982    0.000907571
     11        6           0.002199771   -0.001862309   -0.000802962
     12        6           0.008098695    0.007398497    0.001682436
     13        1           0.001731589   -0.006202030    0.000216750
     14        1          -0.006338472   -0.001034166   -0.000336076
     15        1           0.007609882    0.002913410   -0.000531427
     16        1          -0.001811970    0.007143557    0.000132004
     17        1          -0.008827659   -0.001078293   -0.002021537
     18        1           0.007048360   -0.007271994    0.004931842
     19        1           0.027467739   -0.012180756    0.000063137
     20        6          -0.009705250    0.007282135   -0.006504766
     21        1           0.009912349   -0.006050608    0.006405254
     22        1           0.007693962    0.001330178    0.004723235
     23        1           0.008495123    0.000595769    0.002666500
 -------------------------------------------------------------------
 Cartesian Forces:  Max     0.036436486 RMS     0.009350745

 GradGradGradGradGradGradGradGradGradGradGradGradGradGradGradGradGradGrad
 Berny optimization.
 Using GEDIIS/GDIIS optimizer.
 Internal  Forces:  Max     0.029807230 RMS     0.008022217
 Search for a local minimum.
 Step number   2 out of a maximum of  138
 All quantities printed in internal units (Hartrees-Bohrs-Radians)
 Mixed Optimization -- RFO/linear search
 Update second derivatives using D2CorX and points    1    2
 DE= -3.87D-02 DEPred=-4.77D-02 R= 8.11D-01
 SS=  1.41D+00  RLast= 3.00D-01 DXNew= 5.0454D-01 8.9965D-01
 Trust test= 8.11D-01 RLast= 3.00D-01 DXMaxT set to 5.05D-01
 Use linear search instead of GDIIS.
     Eigenvalues ---    0.00892   0.00957   0.01045   0.01368   0.01390
     Eigenvalues ---    0.01855   0.01896   0.02112   0.02139   0.02188
     Eigenvalues ---    0.02206   0.02206   0.02212   0.02216   0.02230
     Eigenvalues ---    0.02237   0.02247   0.02971   0.10210   0.10792
     Eigenvalues ---    0.15546   0.15996   0.15999   0.15999   0.16000
     Eigenvalues ---    0.16000   0.16000   0.16000   0.16000   0.16371
     Eigenvalues ---    0.21846   0.21999   0.22017   0.22951   0.23747
     Eigenvalues ---    0.24531   0.24988   0.25000   0.25000   0.27475
     Eigenvalues ---    0.31285   0.33354   0.33806   0.33880   0.34921
     Eigenvalues ---    0.35129   0.35221   0.35354   0.35486   0.35531
     Eigenvalues ---    0.36287   0.37420   0.41941   0.42392   0.42890
     Eigenvalues ---    0.46164   0.47277   0.47515   0.50735   0.52677
     Eigenvalues ---    0.54547   0.60443   0.916761000.000001000.00000
     Eigenvalues --- 1000.000001000.000001000.000001000.000001000.00000
     Eigenvalues --- 1000.000001000.000001000.000001000.000001000.00000
     Eigenvalues --- 1000.000001000.000001000.000001000.000001000.00000
     Eigenvalues --- 1000.000001000.000001000.000001000.000001000.00000
     Eigenvalues --- 1000.000001000.000001000.000001000.000001000.00000
     Eigenvalues --- 1000.000001000.000001000.000001000.000001000.00000
     Eigenvalues --- 1000.000001000.000001000.000001000.000001000.00000
     Eigenvalues --- 1000.00000
 RFO step:  Lambda=-1.74997657D-02 EMin= 8.92436972D-03
 Quartic linear search produced a step of  0.57360.
 Iteration  1 RMS(Cart)=  0.15366630 RMS(Int)=  0.00650715
 Iteration  2 RMS(Cart)=  0.02020989 RMS(Int)=  0.00092679
 Iteration  3 RMS(Cart)=  0.00020165 RMS(Int)=  0.00092029
 Iteration  4 RMS(Cart)=  0.00000023 RMS(Int)=  0.00092029
 Variable       Old X    -DE/DX   Delta X   Delta X   Delta X     New X
                                 (Linear)    (Quad)   (Total)
    R1        2.61823   0.02368   0.02642   0.03494   0.06136   2.67959
    R2        1.89629   0.02926   0.03613   0.03787   0.07400   1.97029
    R3        3.36424   0.02279   0.06035   0.02623   0.08657   3.45082
    R4        3.41468   0.01819   0.05564   0.01942   0.07505   3.48973
    R5        2.37614   0.02981   0.02991   0.01301   0.04292   2.41905
    R6        2.67608   0.00966   0.01489   0.01269   0.02751   2.70359
    R7        2.67555   0.01421   0.02362   0.01592   0.03947   2.71501
    R8        2.79013   0.01220   0.02570   0.01584   0.04153   2.83167
    R9        2.64992   0.00556   0.01196   0.00247   0.01442   2.66434
   R10        2.07374   0.00618   0.01116   0.01214   0.02330   2.09704
   R11        2.64539   0.00602   0.01334   0.00267   0.01602   2.66141
   R12        2.07402   0.00634   0.01089   0.01317   0.02407   2.09809
   R13        2.67344   0.01616   0.02741   0.01752   0.04500   2.71844
   R14        2.06890   0.00759   0.01165   0.01717   0.02883   2.09773
   R15        2.66924   0.01711   0.02591   0.02261   0.04859   2.71783
   R16        2.06819   0.00708   0.01156   0.01511   0.02667   2.09486
   R17        2.55962   0.01494   0.02296   0.00996   0.03292   2.59254
   R18        2.07578   0.00881   0.01507   0.01806   0.03313   2.10891
   R19        2.86057   0.00927   0.02527   0.00941   0.03468   2.89524
   R20        2.06449   0.00862   0.00743   0.02702   0.03445   2.09894
   R21        2.06426   0.00996   0.01728   0.01904   0.03632   2.10058
   R22        2.08002   0.00402   0.00284   0.01405   0.01689   2.09691
   R23        2.08030   0.00384   0.00253   0.01369   0.01621   2.09652
    A1        1.85059  -0.01300  -0.02703  -0.07965  -0.10668   1.74391
    A2        1.84320  -0.00489   0.07838  -0.12808  -0.04970   1.79350
    A3        2.08448  -0.00230  -0.00517  -0.00985  -0.01528   2.06920
    A4        2.13766  -0.00115  -0.00352  -0.00048  -0.00402   2.13364
    A5        2.06061   0.00347   0.00875   0.01098   0.01972   2.08033
    A6        2.09773   0.00129   0.00029   0.00464   0.00482   2.10254
    A7        2.11003  -0.00249  -0.00431  -0.01326  -0.01752   2.09250
    A8        2.07540   0.00120   0.00401   0.00856   0.01262   2.08801
    A9        2.09891   0.00178   0.00435   0.00494   0.00921   2.10812
   A10        2.09970  -0.00197  -0.00412  -0.00950  -0.01358   2.08612
   A11        2.08453   0.00019  -0.00023   0.00457   0.00438   2.08891
   A12        2.09810   0.00402   0.01153   0.01078   0.02236   2.12046
   A13        2.07725   0.00106   0.00001   0.01420   0.01419   2.09144
   A14        2.10782  -0.00508  -0.01154  -0.02498  -0.03654   2.07128
   A15        2.09994   0.00212   0.00526   0.00846   0.01379   2.11372
   A16        2.09414   0.00107   0.00241   0.00806   0.01042   2.10456
   A17        2.08911  -0.00319  -0.00767  -0.01651  -0.02422   2.06489
   A18        2.14514   0.00600   0.01315   0.01781   0.03089   2.17603
   A19        2.05120   0.00089   0.00307   0.00074   0.00374   2.05494
   A20        2.08684  -0.00690  -0.01623  -0.01856  -0.03465   2.05219
   A21        2.16974   0.00391   0.01179   0.01080   0.02256   2.19230
   A22        2.04981  -0.00021  -0.00227   0.00549   0.00318   2.05299
   A23        2.06318  -0.00369  -0.00948  -0.01593  -0.02544   2.03774
   A24        2.03109   0.00689   0.00829   0.03478   0.04307   2.07416
   A25        2.06670   0.00399   0.00187   0.04030   0.04217   2.10887
   A26        2.18539  -0.01087  -0.01016  -0.07508  -0.08524   2.10016
   A27        2.05770   0.01014   0.01768   0.03687   0.05443   2.11213
   A28        2.11780  -0.01640   0.00027  -0.09617  -0.09601   2.02179
   A29        2.10767   0.00627  -0.01793   0.05944   0.04140   2.14906
   A30        1.81589   0.00995   0.03967   0.03659   0.07232   1.88821
   A31        1.91187   0.00904   0.02769   0.04612   0.06988   1.98175
   A32        1.91328   0.00867   0.02620   0.04449   0.06686   1.98013
   A33        1.93684  -0.00865  -0.02988  -0.03749  -0.07112   1.86572
   A34        1.93834  -0.00878  -0.02982  -0.03936  -0.07275   1.86558
   A35        1.94336  -0.00844  -0.02186  -0.04218  -0.06757   1.87579
    D1       -0.00217  -0.00001   0.00001  -0.00011  -0.00015  -0.00232
    D2       -3.14000   0.00012   0.00050   0.00374   0.00429  -3.13571
    D3        3.12588   0.00038   0.00163   0.01826   0.01996  -3.13734
    D4       -0.00908  -0.00013  -0.00064  -0.00700  -0.00771  -0.01679
    D5       -3.13670   0.00009   0.00051   0.00009   0.00075  -3.13595
    D6        1.07472   0.00044   0.00317   0.00182   0.00460   1.07932
    D7       -1.06251  -0.00054  -0.00250  -0.00443  -0.00669  -1.06919
    D8        0.02969  -0.00056  -0.00168  -0.02006  -0.02158   0.00811
    D9       -3.10260  -0.00037  -0.00098  -0.01296  -0.01382  -3.11642
   D10        3.13918   0.00015   0.00087   0.00429   0.00502  -3.13899
   D11        0.00689   0.00034   0.00157   0.01139   0.01278   0.01967
   D12       -0.02628   0.00020   0.00038   0.00843   0.00880  -0.01748
   D13        3.12570   0.00015   0.00040   0.00674   0.00715   3.13285
   D14       -3.13718  -0.00040  -0.00182  -0.01467  -0.01655   3.12945
   D15        0.01480  -0.00044  -0.00180  -0.01636  -0.01821  -0.00341
   D16        0.55393  -0.00294  -0.00908  -0.12930  -0.13854   0.41539
   D17       -2.62092  -0.00260  -0.00812  -0.11690  -0.12507  -2.74598
   D18       -2.61935  -0.00234  -0.00683  -0.10562  -0.11240  -2.73175
   D19        0.48899  -0.00200  -0.00587  -0.09322  -0.09892   0.39007
   D20       -0.01397   0.00050   0.00161   0.01780   0.01947   0.00550
   D21        3.13269   0.00052   0.00171   0.01811   0.01989  -3.13061
   D22        3.11850   0.00029   0.00088   0.01072   0.01157   3.13007
   D23       -0.01802   0.00032   0.00098   0.01103   0.01198  -0.00604
   D24        0.00713   0.00018   0.00079   0.00543   0.00621   0.01334
   D25       -3.13366   0.00001   0.00012  -0.00001   0.00007  -3.13359
   D26        3.13842   0.00021   0.00075   0.00702   0.00777  -3.13700
   D27       -0.00237   0.00005   0.00008   0.00158   0.00162  -0.00075
   D28        3.14008   0.00000   0.00004  -0.00011  -0.00005   3.14002
   D29       -0.00535  -0.00013  -0.00044  -0.00399  -0.00441  -0.00976
   D30       -0.00668  -0.00001  -0.00003  -0.00030  -0.00032  -0.00699
   D31        3.13108  -0.00013  -0.00050  -0.00419  -0.00467   3.12641
   D32       -3.13643  -0.00033  -0.00123  -0.01130  -0.01244   3.13431
   D33        0.00879  -0.00023  -0.00080  -0.00766  -0.00846   0.00033
   D34        0.00436  -0.00016  -0.00055  -0.00587  -0.00642  -0.00206
   D35       -3.13361  -0.00006  -0.00012  -0.00223  -0.00244  -3.13605
   D36       -3.13317  -0.00044  -0.00179  -0.01129  -0.01313   3.13689
   D37        0.01042  -0.00044  -0.00149  -0.01208  -0.01364  -0.00322
   D38        0.04191  -0.00084  -0.00289  -0.02417  -0.02699   0.01492
   D39       -3.09768  -0.00084  -0.00259  -0.02496  -0.02751  -3.12519
   D40        3.11690   0.00037   0.00155   0.01858   0.02011   3.13701
   D41       -0.01788  -0.00017  -0.00100  -0.00728  -0.00824  -0.02612
   D42       -0.02685   0.00039   0.00124   0.01960   0.02079  -0.00607
   D43        3.12156  -0.00015  -0.00132  -0.00627  -0.00756   3.11400
         Item               Value     Threshold  Converged?
 Maximum Force            0.029807     0.000450     NO 
 RMS     Force            0.008022     0.000300     NO 
 Maximum Displacement     0.588226     0.001800     NO 
 RMS     Displacement     0.169261     0.001200     NO 
 Predicted change in Energy=-1.108190D-02
 GradGradGradGradGradGradGradGradGradGradGradGradGradGradGradGradGradGrad

                          Input orientation:                          
 ---------------------------------------------------------------------
 Center     Atomic      Atomic             Coordinates (Angstroms)
 Number     Number       Type             X           Y           Z
 ---------------------------------------------------------------------
      1          8           0        1.765276    4.006501   -0.222584
      2         16           0       -1.190010   -4.932424    0.892671
      3          8           0       -2.965700   -3.276735   -0.327145
      4          6           0       -0.403192    0.289663   -0.244486
      5          6           0        1.024503    0.271952   -0.153855
      6          6           0       -1.069662    1.558931   -0.339084
      7          6           0        1.755456    1.477570   -0.147942
      8          6           0       -0.336398    2.761214   -0.321562
      9          6           0        1.098573    2.755037   -0.225188
     10          6           0       -1.219615   -0.966831   -0.250790
     11          6           0       -0.829798   -2.175352    0.268505
     12          6           0       -1.794788   -3.362287    0.183072
     13          1           0        1.563512   -0.696776   -0.104031
     14          1           0       -2.176603    1.591114   -0.418588
     15          1           0        2.863580    1.451186   -0.087781
     16          1           0       -0.854686    3.738948   -0.387150
     17          1           0       -2.240529   -0.918400   -0.698918
     18          1           0        0.166411   -2.295564    0.744741
     19          1           0        2.753946    3.683143   -0.151514
     20          6           0        0.505881   -4.490477    1.474814
     21          1           0        0.965692   -5.397230    1.924242
     22          1           0        0.515025   -3.702997    2.256532
     23          1           0        1.180075   -4.157839    0.658941
 ---------------------------------------------------------------------
                    Distance matrix (angstroms):
                    1          2          3          4          5
     1  O    0.000000
     2  S    9.480606   0.000000
     3  O    8.685539   2.717045   0.000000
     4  C    4.303210   5.402074   4.392320   0.000000
     5  C    3.807929   5.751940   5.342745   1.430678   0.000000
     6  C    3.747138   6.608282   5.194109   1.436722   2.464985
     7  C    2.530052   7.130685   6.702599   2.465807   1.409908
     8  C    2.444907   7.835502   6.585597   2.473654   2.841936
     9  C    1.417978   8.098412   7.273994   2.886821   2.485213
    10  C    5.800380   4.127264   2.896601   1.498454   2.565160
    11  C    6.722416   2.849699   2.475868   2.553714   3.099374
    12  C    8.193757   1.826094   1.280107   3.931423   4.611899
    13  H    4.709095   5.149370   5.217253   2.204703   1.109706
    14  H    4.627194   6.726762   4.932240   2.206598   3.472370
    15  H    2.784614   7.625179   7.509397   3.470662   2.185673
    16  H    2.638725   8.771721   7.326649   3.481633   3.950422
    17  H    6.366162   4.444000   2.495162   2.245380   3.517736
    18  H    6.573288   2.968971   3.452789   2.826025   2.852356
    19  H    1.042631   9.532739   9.010277   4.635932   3.824552
    20  C    8.755905   1.846687   4.095375   5.160634   5.059868
    21  H    9.678758   2.434591   5.002108   6.238428   6.038342
    22  H    8.194236   2.505744   4.355747   4.799953   4.676511
    23  H    8.232618   2.504379   4.351570   4.806578   4.506428
                    6          7          8          9         10
     6  C    0.000000
     7  C    2.832746   0.000000
     8  C    1.408357   2.460435   0.000000
     9  C    2.478888   1.438536   1.438216   0.000000
    10  C    2.531749   3.851846   3.831893   4.384855   0.000000
    11  C    3.790985   4.494530   4.996129   5.317056   1.371914
    12  C    5.001684   6.011490   6.314968   6.779371   2.501454
    13  H    3.475208   2.183243   3.951541   3.485091   2.800048
    14  H    1.110259   3.942998   2.182866   3.481221   2.736250
    15  H    3.942735   1.110070   3.465643   2.198672   4.748249
    16  H    2.191118   3.461776   1.108552   2.193065   4.721877
    17  H    2.763617   4.691710   4.160249   4.986799   1.115988
    18  H    4.190428   4.190285   5.192381   5.226687   2.162795
    19  H    4.378063   2.421063   3.229411   1.899229   6.117295
    20  C    6.509063   6.309703   7.518206   7.465840   4.286155
    21  H    7.592989   7.223610   8.561500   8.431914   5.397663
    22  H    6.077528   5.844522   7.011242   6.943030   4.096614
    23  H    6.224053   5.721884   7.150830   6.969662   4.094956
[...]
     23          1           0        1.135016   -4.386187    0.365645
 ---------------------------------------------------------------------
                    Distance matrix (angstroms):
                    1          2          3          4          5
     1  O    0.000000
     2  S    9.523969   0.000000
     3  O    8.595782   2.701609   0.000000
     4  C    4.278702   5.421946   4.335513   0.000000
     5  C    3.784344   5.783958   5.319530   1.428413   0.000000
     6  C    3.730274   6.632029   5.093661   1.432789   2.462090
     7  C    2.512621   7.174588   6.663056   2.458709   1.403983
     8  C    2.434903   7.872950   6.484322   2.463224   2.834551
     9  C    1.415122   8.135585   7.189386   2.864928   2.467403
    10  C    5.759195   4.139118   2.857083   1.482984   2.563463
    11  C    6.708961   2.876959   2.454203   2.545048   3.082269
    12  C    8.152098   1.837446   1.271769   3.899737   4.595527
    13  H    4.678308   5.176578   5.236366   2.203287   1.105095
    14  H    4.610950   6.734537   4.800745   2.198981   3.464720
    15  H    2.766588   7.672071   7.485619   3.460795   2.178109
    16  H    2.631415   8.809085   7.206307   3.468074   3.938618
    17  H    6.291417   4.434977   2.450670   2.216878   3.526625
    18  H    6.605533   3.005508   3.424163   2.835648   2.824797
    19  H    1.036271   9.613718   8.970120   4.643132   3.836333
    20  C    8.979043   1.826462   4.110237   5.318552   5.210543
    21  H    9.963871   2.394974   4.982070   6.410831   6.225559
    22  H    8.472672   2.474706   4.374163   4.993398   4.765494
    23  H    8.472148   2.474676   4.373172   4.992583   4.765392
                    6          7          8          9         10
     6  C    0.000000
     7  C    2.829769   0.000000
     8  C    1.402642   2.458013   0.000000
     9  C    2.463523   1.431205   1.430596   0.000000
    10  C    2.497599   3.838616   3.795781   4.346709   0.000000
    11  C    3.793616   4.483097   4.998467   5.303793   1.367628
    12  C    4.957917   5.991923   6.273673   6.738410   2.477907
    13  H    3.470096   2.169740   3.939596   3.462144   2.816540
    14  H    1.106127   3.935890   2.176810   3.464752   2.692473
    15  H    3.935515   1.105768   3.459181   2.192912   4.737850
    16  H    2.182522   3.454532   1.104164   2.185867   4.679479
    17  H    2.666729   4.675531   4.067965   4.918174   1.110198
    18  H    4.241229   4.191044   5.249882   5.255414   2.158597
    19  H    4.385409   2.439130   3.236988   1.922146   6.113344
    20  C    6.703702   6.492964   7.740690   7.675898   4.407113
    21  H    7.804113   7.459494   8.817682   8.692259   5.512463
    22  H    6.387637   5.993004   7.347049   7.203296   4.240402
    23  H    6.386444   5.992915   7.346007   7.202722   4.239381
                   11         12         13         14         15
    11  C    0.000000
    12  C    1.519975   0.000000
    13  H    2.808219   4.297174   0.000000
    14  H    4.059927   4.946492   4.386772   0.000000
    15  H    5.171141   6.690185   2.495755   5.041641   0.000000
    16  H    5.954890   7.138502   5.043608   2.516411   4.364877
    17  H    2.115048   2.608556   3.908065   2.383250   5.658102
    18  H    1.101268   2.283338   2.178843   4.740665   4.670693
    19  H    6.896949   8.391259   4.543749   5.366201   2.252662
    20  C    3.049452   2.910506   4.335763   7.094131   6.747403
    21  H    4.151846   3.864917   5.289915   8.200720   7.619754
    22  H    2.972602   3.155948   3.863804   6.856826   6.201127
    23  H    2.971977   3.155173   3.864416   6.855315   6.201491
                   16         17         18         19         20
    16  H    0.000000
    17  H    4.755826   0.000000
    18  H    6.293210   3.114402   0.000000
    19  H    3.614682   6.786830   6.626753   0.000000
    20  C    8.782281   5.091599   2.491028   8.877079   0.000000
    21  H    9.868701   6.170971   3.576291   9.800763   1.107072
    22  H    8.401485   5.018743   2.268773   8.336096   1.107641
    23  H    8.400247   5.017388   2.269085   8.335905   1.107634
                   21         22         23
    21  H    0.000000
    22  H    1.789186   0.000000
    23  H    1.789180   1.800920   0.000000
 Stoichiometry    C10H10O2S
 Framework group  C1[X(C10H10O2S)]
 Deg. of freedom    63
 Full point group                 C1      NOp   1
 Largest Abelian subgroup         C1      NOp   1
 Largest concise Abelian subgroup C1      NOp   1
                         Standard orientation:                         
 ---------------------------------------------------------------------
 Center     Atomic      Atomic             Coordinates (Angstroms)
 Number     Number       Type             X           Y           Z
 ---------------------------------------------------------------------
      1          8           0        5.309770    0.623223    0.000129
      2         16           0       -4.208438    0.292011   -0.000214
      3          8           0       -2.860075   -2.049059   -0.000465
      4          6           0        1.164355   -0.436412   -0.000059
      5          6           0        1.538879    0.942027   -0.000801
      6          6           0        2.195922   -1.430772    0.000683
      7          6           0        2.893317    1.311713   -0.000760
      8          6           0        3.547987   -1.057513    0.000726
      9          6           0        3.927093    0.321938    0.000019
     10          6           0       -0.244499   -0.899413   -0.000009
     11          6           0       -1.359311   -0.107200   -0.000331
     12          6           0       -2.719766   -0.785054   -0.000321
     13          1           0        0.764329    1.730256   -0.001423
     14          1           0        1.919279   -2.501747    0.001234
     15          1           0        3.173657    2.381354   -0.001339
     16          1           0        4.342718   -1.824052    0.001307
     17          1           0       -0.409954   -1.997213    0.000335
     18          1           0       -1.285483    0.991591   -0.000705
     19          1           0        5.307526    1.659491   -0.000443
     20          6           0       -3.562996    2.000625    0.001249
     21          1           0       -4.440408    2.675723    0.002128
     22          1           0       -2.960281    2.230618   -0.899144
     23          1           0       -2.959827    2.228866    0.901775
 ---------------------------------------------------------------------
 Rotational constants (GHZ):      1.9534702      0.2460226      0.2188132

 **********************************************************************

            Population analysis using the SCF density.

 **********************************************************************

 Orbital symmetries:
       Occupied  (A) (A) (A) (A) (A) (A) (A) (A) (A) (A) (A) (A)
                 (A) (A) (A) (A) (A) (A) (A) (A) (A) (A) (A) (A)
                 (A) (A) (A) (A) (A) (A) (A) (A) (A) (A) (A) (A)
                 (A) (A) (A) (A) (A) (A) (A) (A) (A) (A) (A) (A)
                 (A) (A) (A)
       Virtual   (A) (A) (A) (A) (A) (A) (A) (A) (A) (A) (A) (A)
                 (A) (A) (A) (A) (A) (A) (A) (A) (A) (A) (A) (A)
                 (A) (A) (A) (A)
 The electronic state is 1-A.
 Alpha  occ. eigenvalues --  -86.90971 -18.58796 -18.47794  -9.77172  -9.74733
 Alpha  occ. eigenvalues --   -9.72274  -9.72186  -9.71963  -9.71585  -9.71569
 Alpha  occ. eigenvalues --   -9.71297  -9.71177  -9.69964  -7.34055  -5.36198
 Alpha  occ. eigenvalues --   -5.35250  -5.33902  -0.91731  -0.85347  -0.72577
 Alpha  occ. eigenvalues --   -0.66847  -0.65389  -0.63375  -0.60597  -0.54702
 Alpha  occ. eigenvalues --   -0.51587  -0.51168  -0.46423  -0.43002  -0.40989
 Alpha  occ. eigenvalues --   -0.38652  -0.36022  -0.35688  -0.33813  -0.33585
 Alpha  occ. eigenvalues --   -0.33260  -0.32203  -0.29326  -0.29163  -0.27590
 Alpha  occ. eigenvalues --   -0.26129  -0.25619  -0.23639  -0.23106  -0.22637
 Alpha  occ. eigenvalues --   -0.19637  -0.16820  -0.16216  -0.10663  -0.09025
 Alpha  occ. eigenvalues --   -0.07315
 Alpha virt. eigenvalues --    0.00745   0.05450   0.08093   0.14366   0.18926
 Alpha virt. eigenvalues --    0.19041   0.20254   0.21469   0.25164   0.31860
 Alpha virt. eigenvalues --    0.32796   0.34664   0.36699   0.37335   0.38152
 Alpha virt. eigenvalues --    0.38675   0.38905   0.40599   0.41972   0.47237
 Alpha virt. eigenvalues --    0.48684   0.52292   0.53121   0.55201   0.58260
 Alpha virt. eigenvalues --    0.64343   0.69774   0.72362
          Condensed to atoms (all electrons):
              1          2          3          4          5          6
     1  O    7.694439   0.000000   0.000000   0.000005   0.000236   0.000263
     2  S    0.000000  15.462967  -0.021414  -0.000003   0.000000   0.000000
     3  O    0.000000  -0.021414   7.813026   0.000001   0.000000   0.000000
     4  C    0.000005  -0.000003   0.000001   4.794180   0.482980   0.479573
     5  C    0.000236   0.000000   0.000000   0.482980   4.817572  -0.029498
     6  C    0.000263   0.000000   0.000000   0.479573  -0.029498   4.822171
     7  C   -0.016484   0.000000   0.000000  -0.028448   0.508036  -0.009643
     8  C   -0.022377   0.000000   0.000000  -0.028461  -0.009336   0.510549
     9  C    0.288067   0.000000   0.000000  -0.009841  -0.024663  -0.025492
    10  C    0.000000   0.000383  -0.003552   0.424828  -0.024171  -0.030328
    11  C    0.000000  -0.028222  -0.022652  -0.024033  -0.004121   0.000727
    12  C    0.000000   0.231241   0.408890   0.000753   0.000005  -0.000005
    13  H   -0.000003   0.000001   0.000000  -0.023462   0.385286   0.001271
    14  H   -0.000004   0.000000   0.000000  -0.023976   0.001246   0.386140
    15  H   -0.001547   0.000000   0.000000   0.001312  -0.023673   0.000045
    16  H   -0.000675   0.000000   0.000000   0.001308   0.000040  -0.023174
    17  H    0.000000   0.000051   0.002870  -0.024117   0.001042  -0.004040
    18  H    0.000000  -0.000639   0.000460  -0.003104  -0.000587   0.000009
    19  H    0.232563   0.000000   0.000000   0.000003   0.000041  -0.000051
    20  C    0.000000   0.243021   0.000073   0.000000   0.000000   0.000000
    21  H    0.000000  -0.017877  -0.000001   0.000000   0.000000   0.000000
    22  H    0.000000  -0.016429   0.000002   0.000001   0.000000   0.000000
    23  H    0.000000  -0.016424   0.000002   0.000001   0.000000   0.000000
              7          8          9         10         11         12
     1  O   -0.016484  -0.022377   0.288067   0.000000   0.000000   0.000000
     2  S    0.000000   0.000000   0.000000   0.000383  -0.028222   0.231241
     3  O    0.000000   0.000000   0.000000  -0.003552  -0.022652   0.408890
     4  C   -0.028448  -0.028461  -0.009841   0.424828  -0.024033   0.000753
     5  C    0.508036  -0.009336  -0.024663  -0.024171  -0.004121   0.000005
     6  C   -0.009643   0.510549  -0.025492  -0.030328   0.000727  -0.000005
     7  C    4.865032  -0.030142   0.472425   0.000759   0.000019   0.000000
     8  C   -0.030142   4.842474   0.473635   0.000868  -0.000007   0.000000
     9  C    0.472425   0.473635   4.844215   0.000024   0.000000   0.000000
    10  C    0.000759   0.000868   0.000024   4.826676   0.556439  -0.026616
    11  C    0.000019  -0.000007   0.000000   0.556439   4.913945   0.371877
    12  C    0.000000   0.000000   0.000000  -0.026616   0.371877   5.030454
    13  H   -0.024934   0.000018   0.001261  -0.002844  -0.000569  -0.000007
    14  H    0.000024  -0.024628   0.001281  -0.003888   0.000030  -0.000001
    15  H    0.383087   0.001209  -0.026156  -0.000014   0.000000   0.000000
    16  H    0.001241   0.384485  -0.025006  -0.000016   0.000000   0.000000
    17  H   -0.000016   0.000028  -0.000001   0.380712  -0.028990  -0.005184
    18  H   -0.000010   0.000000   0.000000  -0.025086   0.381272  -0.020785
    19  H   -0.007312   0.002810  -0.035083   0.000000   0.000000   0.000000
    20  C    0.000000   0.000000   0.000000   0.000031  -0.003203  -0.006665
    21  H    0.000000   0.000000   0.000000   0.000000   0.000039   0.000432
    22  H    0.000000   0.000000   0.000000   0.000006  -0.000587  -0.000966
    23  H    0.000000   0.000000   0.000000   0.000006  -0.000585  -0.000970
             13         14         15         16         17         18
     1  O   -0.000003  -0.000004  -0.001547  -0.000675   0.000000   0.000000
     2  S    0.000001   0.000000   0.000000   0.000000   0.000051  -0.000639
     3  O    0.000000   0.000000   0.000000   0.000000   0.002870   0.000460
     4  C   -0.023462  -0.023976   0.001312   0.001308  -0.024117  -0.003104
     5  C    0.385286   0.001246  -0.023673   0.000040   0.001042  -0.000587
     6  C    0.001271   0.386140   0.000045  -0.023174  -0.004040   0.000009
     7  C   -0.024934   0.000024   0.383087   0.001241  -0.000016  -0.000010
     8  C    0.000018  -0.024628   0.001209   0.384485   0.000028   0.000000
     9  C    0.001261   0.001281  -0.026156  -0.025006  -0.000001   0.000000
    10  C   -0.002844  -0.003888  -0.000014  -0.000016   0.380712  -0.025086
    11  C   -0.000569   0.000030   0.000000   0.000000  -0.028990   0.381272
    12  C   -0.000007  -0.000001   0.000000   0.000000  -0.005184  -0.020785
    13  H    0.579580  -0.000032  -0.003814   0.000002   0.000015   0.000834
    14  H   -0.000032   0.575189   0.000002  -0.003637   0.001021   0.000000
    15  H   -0.003814   0.000002   0.591289  -0.000036   0.000000   0.000002
    16  H    0.000002  -0.003637  -0.000036   0.573449  -0.000002   0.000000
    17  H    0.000015   0.001021   0.000000  -0.000002   0.578731   0.001976
    18  H    0.000834   0.000000   0.000002   0.000000   0.001976   0.588419
    19  H   -0.000006   0.000001   0.002364   0.000006   0.000000   0.000000
    20  C   -0.000003   0.000000   0.000000   0.000000  -0.000001  -0.001987
    21  H    0.000000   0.000000   0.000000   0.000000   0.000000   0.000060
    22  H   -0.000002   0.000000   0.000000   0.000000  -0.000001  -0.000416
    23  H   -0.000002   0.000000   0.000000   0.000000  -0.000001  -0.000419
             19         20         21         22         23
     1  O    0.232563   0.000000   0.000000   0.000000   0.000000
     2  S    0.000000   0.243021  -0.017877  -0.016429  -0.016424
     3  O    0.000000   0.000073  -0.000001   0.000002   0.000002
     4  C    0.000003   0.000000   0.000000   0.000001   0.000001
     5  C    0.000041   0.000000   0.000000   0.000000   0.000000
     6  C   -0.000051   0.000000   0.000000   0.000000   0.000000
     7  C   -0.007312   0.000000   0.000000   0.000000   0.000000
     8  C    0.002810   0.000000   0.000000   0.000000   0.000000
     9  C   -0.035083   0.000000   0.000000   0.000000   0.000000
    10  C    0.000000   0.000031   0.000000   0.000006   0.000006
    11  C    0.000000  -0.003203   0.000039  -0.000587  -0.000585
    12  C    0.000000  -0.006665   0.000432  -0.000966  -0.000970
    13  H   -0.000006  -0.000003   0.000000  -0.000002  -0.000002
    14  H    0.000001   0.000000   0.000000   0.000000   0.000000
    15  H    0.002364   0.000000   0.000000   0.000000   0.000000
    16  H    0.000006   0.000000   0.000000   0.000000   0.000000
    17  H    0.000000  -0.000001   0.000000  -0.000001  -0.000001
    18  H    0.000000  -0.001987   0.000060  -0.000416  -0.000419
    19  H    0.595388   0.000000   0.000000   0.000000   0.000000
    20  C    0.000000   4.967077   0.373142   0.372622   0.372627
    21  H    0.000000   0.373142   0.589767  -0.019783  -0.019779
    22  H    0.000000   0.372622  -0.019783   0.600065  -0.022370
    23  H    0.000000   0.372627  -0.019779  -0.022370   0.600036
 Mulliken atomic charges:
              1
     1  O   -0.174483
     2  S    0.163344
     3  O   -0.177705
     4  C   -0.019499
     5  C   -0.080435
     6  C   -0.078518
     7  C   -0.113635
     8  C   -0.101124
     9  C    0.065333
    10  C   -0.074216
    11  C   -0.111378
    12  C    0.017546
    13  H    0.087410
    14  H    0.091232
    15  H    0.075930
    16  H    0.092015
    17  H    0.095905
    18  H    0.080000
    19  H    0.209276
    20  C   -0.316735
    21  H    0.094000
    22  H    0.087858
    23  H    0.087878
 Sum of Mulliken atomic charges =   0.00000
 Mulliken charges with hydrogens summed into heavy atoms:
              1
     1  O    0.034794
     2  S    0.163344
     3  O   -0.177705
     4  C   -0.019499
     5  C    0.006975
     6  C    0.012714
     7  C   -0.037705
     8  C   -0.009109
     9  C    0.065333
    10  C    0.021689
    11  C   -0.031377
    12  C    0.017546
    20  C   -0.046999
 Sum of Mulliken charges with hydrogens summed into heavy atoms =   0.00000
 Electronic spatial extent (au):  <R**2>=           4549.6765
 Charge=              0.0000 electrons
 Dipole moment (field-independent basis, Debye):
    X=              2.5979    Y=              3.7117    Z=              0.0004  Tot=              4.5305
 Quadrupole moment (field-independent basis, Debye-Ang):
   XX=            -73.4418   YY=            -69.4589   ZZ=            -77.4644
   XY=             -1.1920   XZ=             -0.0064   YZ=             -0.0042
 Traceless Quadrupole moment (field-independent basis, Debye-Ang):
   XX=              0.0132   YY=              3.9962   ZZ=             -4.0094
   XY=             -1.1920   XZ=             -0.0064   YZ=             -0.0042
 Octapole moment (field-independent basis, Debye-Ang**2):
  XXX=             45.7171  YYY=             10.9763  ZZZ=             -0.0010  XYY=             25.3227
  XXY=             62.2915  XXZ=             -0.0040  XZZ=             -6.9782  YZZ=             -1.2353
  YYZ=              0.0021  XYZ=             -0.0178
 Hexadecapole moment (field-independent basis, Debye-Ang**3):
 XXXX=          -4543.2711 YYYY=           -678.2873 ZZZZ=            -67.5317 XXXY=            137.0376
 XXXZ=             -0.1362 YYYX=             25.2547 YYYZ=             -0.0271 ZZZX=              0.0109
 ZZZY=              0.0124 XXYY=           -752.8631 XXZZ=           -790.4091 YYZZ=           -130.0886
 XXYZ=             -0.0297 YYXZ=             -0.0171 ZZXY=             15.9571
 N-N= 7.716192095011D+02 E-N=-3.713653263978D+03  KE= 9.099016848688D+02
 1\1\GINC-CLODOMIRA\FOpt\RPBEPBE\STO-3G\C10H10O2S1\DIEGOA\31-Oct-2019\0
 \\# pbepbe/sto-3g opt(maxcycles=500)\\Title\\0,1\O,1.7475749339,4.0236
 01544,-0.4574765381\S,-1.2235707371,-4.9247275023,0.886280101\O,-3.033
 3379049,-3.1019716132,0.0490264857\C,-0.401491579,0.3391605228,-0.1202
 824955\C,0.9906622057,0.3740528652,0.1976069643\C,-1.0416798146,1.5482
 826579,-0.5458015455\C,1.7147486973,1.5724249258,0.0938149007\C,-0.314
 9185521,2.7435741819,-0.648269433\C,1.079468906,2.7825677929,-0.330829
 3679\C,-1.2279395452,-0.8891405088,-0.0336735082\C,-0.7997605289,-2.13
 03014916,0.3491951606\C,-1.8133749819,-3.262760999,0.3703268959\H,1.51
 02043871,-0.543473789,0.5284467864\H,-2.1193045346,1.5347787276,-0.794
 9194677\H,2.7921555116,1.5897504527,0.3420423847\H,-0.8085658702,3.675
 2031081,-0.9762306386\H,-2.2995747686,-0.7909333113,-0.3066072724\H,0.
 2471708311,-2.3156154074,0.6362225519\H,2.7147880769,3.7807298101,-0.1
 757501141\C,0.5532460367,-4.7101668963,1.2507627191\H,0.9386817852,-5.
 6992582731,1.5650030086\H,0.7367512738,-3.9972399827,2.0783674251\H,1.
 1350161719,-4.3861868144,0.365644997\\Version=EM64L-G09RevA.01\State=1
 -A\HF=-923.7933003\RMSD=3.132e-09\RMSF=6.387e-06\Dipole=1.6498912,0.62
 9728,0.2417094\Quadrupole=1.9813349,0.4220012,-2.4033361,-1.2264739,1.
 442323,-1.0571035\PG=C01 [X(C10H10O2S1)]\\@


 ... IT IS NO ONE DREAME THAT
     CAN PLEASE THESE ALL ...

                -- BEN JONSON
 Job cpu time:  0 days  0 hours  4 minutes 28.1 seconds.
 File lengths (MBytes):  RWF=     14 Int=      0 D2E=      0 Chk=     24 Scr=      1
 Normal termination of Gaussian 09 at Thu Oct 31 22:52:48 2019.
